  51  51   0   0
  0.5138078E+02  0.1230000E-08  0.1230000E-08  0.2000000E-08  0.5000000E-15
  1.000000000000000E-004
  CAR 
                                         
      5.97322830    -33.53505164  301     -3.01713366      1.00000000
    -33.535  0.0000E+00  0.0000E+00
    -33.403  0.0000E+00  0.0000E+00
    -33.272  0.0000E+00  0.0000E+00
    -33.140  0.0000E+00  0.0000E+00
    -33.008  0.0000E+00  0.0000E+00
    -32.877  0.0000E+00  0.0000E+00
    -32.745  0.0000E+00  0.0000E+00
    -32.613  0.0000E+00  0.0000E+00
    -32.481  0.0000E+00  0.0000E+00
    -32.350  0.0000E+00  0.0000E+00
    -32.218  0.0000E+00  0.0000E+00
    -32.086  0.0000E+00  0.0000E+00
    -31.955  0.8229E-08  0.1084E-08
    -31.823  0.1345E+00  0.1771E-01
    -31.691  0.1372E+02  0.1824E+01
    -31.560  0.1336E+01  0.2000E+01
    -31.428  0.2895E-05  0.2000E+01
    -31.296  0.0000E+00  0.2000E+01
    -31.165  0.0000E+00  0.2000E+01
    -31.033  0.0000E+00  0.2000E+01
    -30.901  0.0000E+00  0.2000E+01
    -30.769  0.0000E+00  0.2000E+01
    -30.638  0.0000E+00  0.2000E+01
    -30.506  0.0000E+00  0.2000E+01
    -30.374  0.0000E+00  0.2000E+01
    -30.243  0.0000E+00  0.2000E+01
    -30.111  0.0000E+00  0.2000E+01
    -29.979  0.0000E+00  0.2000E+01
    -29.848  0.0000E+00  0.2000E+01
    -29.716  0.0000E+00  0.2000E+01
    -29.584  0.0000E+00  0.2000E+01
    -29.453  0.0000E+00  0.2000E+01
    -29.321  0.0000E+00  0.2000E+01
    -29.189  0.0000E+00  0.2000E+01
    -29.057  0.0000E+00  0.2000E+01
    -28.926  0.0000E+00  0.2000E+01
    -28.794  0.0000E+00  0.2000E+01
    -28.662  0.0000E+00  0.2000E+01
    -28.531  0.0000E+00  0.2000E+01
    -28.399  0.0000E+00  0.2000E+01
    -28.267  0.0000E+00  0.2000E+01
    -28.136  0.0000E+00  0.2000E+01
    -28.004  0.0000E+00  0.2000E+01
    -27.872  0.0000E+00  0.2000E+01
    -27.741  0.0000E+00  0.2000E+01
    -27.609  0.0000E+00  0.2000E+01
    -27.477  0.0000E+00  0.2000E+01
    -27.345  0.0000E+00  0.2000E+01
    -27.214  0.0000E+00  0.2000E+01
    -27.082  0.0000E+00  0.2000E+01
    -26.950  0.0000E+00  0.2000E+01
    -26.819  0.0000E+00  0.2000E+01
    -26.687  0.0000E+00  0.2000E+01
    -26.555  0.0000E+00  0.2000E+01
    -26.424  0.0000E+00  0.2000E+01
    -26.292  0.0000E+00  0.2000E+01
    -26.160  0.0000E+00  0.2000E+01
    -26.028  0.0000E+00  0.2000E+01
    -25.897  0.0000E+00  0.2000E+01
    -25.765  0.0000E+00  0.2000E+01
    -25.633  0.0000E+00  0.2000E+01
    -25.502  0.0000E+00  0.2000E+01
    -25.370  0.0000E+00  0.2000E+01
    -25.238  0.0000E+00  0.2000E+01
    -25.107  0.0000E+00  0.2000E+01
    -24.975  0.0000E+00  0.2000E+01
    -24.843  0.0000E+00  0.2000E+01
    -24.712  0.0000E+00  0.2000E+01
    -24.580  0.0000E+00  0.2000E+01
    -24.448  0.0000E+00  0.2000E+01
    -24.316  0.0000E+00  0.2000E+01
    -24.185  0.0000E+00  0.2000E+01
    -24.053  0.0000E+00  0.2000E+01
    -23.921  0.0000E+00  0.2000E+01
    -23.790  0.0000E+00  0.2000E+01
    -23.658  0.0000E+00  0.2000E+01
    -23.526  0.0000E+00  0.2000E+01
    -23.395  0.0000E+00  0.2000E+01
    -23.263  0.0000E+00  0.2000E+01
    -23.131  0.0000E+00  0.2000E+01
    -23.000  0.0000E+00  0.2000E+01
    -22.868  0.0000E+00  0.2000E+01
    -22.736  0.0000E+00  0.2000E+01
    -22.604  0.0000E+00  0.2000E+01
    -22.473  0.9628E-08  0.2000E+01
    -22.341  0.4001E-01  0.2005E+01
    -22.209  0.4424E+01  0.2588E+01
    -22.078  0.9208E+01  0.3801E+01
    -21.946  0.4902E+01  0.4446E+01
    -21.814  0.1071E+02  0.5856E+01
    -21.683  0.5518E+01  0.6583E+01
    -21.551  0.7698E+01  0.7597E+01
    -21.419  0.1275E+02  0.9276E+01
    -21.287  0.5496E+01  0.9999E+01
    -21.156  0.3760E+01  0.1049E+02
    -21.024  0.9223E+01  0.1171E+02
    -20.892  0.1079E+02  0.1313E+02
    -20.761  0.1003E+02  0.1445E+02
    -20.629  0.8365E+01  0.1555E+02
    -20.497  0.1999E+00  0.1558E+02
    -20.366  0.1313E+02  0.1731E+02
    -20.234  0.3957E+01  0.1783E+02
    -20.102  0.1860E+02  0.2028E+02
    -19.971  0.1271E+01  0.2045E+02
    -19.839  0.3581E+01  0.2092E+02
    -19.707  0.1389E+02  0.2275E+02
    -19.575  0.8508E+01  0.2387E+02
    -19.444  0.6060E+01  0.2467E+02
    -19.312  0.6895E+01  0.2557E+02
    -19.180  0.1402E+02  0.2742E+02
    -19.049  0.7512E+01  0.2841E+02
    -18.917  0.4751E+01  0.2903E+02
    -18.785  0.5219E+01  0.2972E+02
    -18.654  0.5211E+01  0.3041E+02
    -18.522  0.1389E+02  0.3224E+02
    -18.390  0.1138E+02  0.3374E+02
    -18.259  0.8687E+01  0.3488E+02
    -18.127  0.4835E+01  0.3552E+02
    -17.995  0.1531E+02  0.3753E+02
    -17.863  0.4792E+01  0.3816E+02
    -17.732  0.3736E+01  0.3866E+02
    -17.600  0.5842E+01  0.3943E+02
    -17.468  0.1579E+02  0.4150E+02
    -17.337  0.4141E+01  0.4205E+02
    -17.205  0.2139E+02  0.4487E+02
    -17.073  0.6811E+01  0.4576E+02
    -16.942  0.3497E+01  0.4622E+02
    -16.810  0.8879E+01  0.4739E+02
    -16.678  0.4122E+01  0.4794E+02
    -16.546  0.8834E+01  0.4910E+02
    -16.415  0.8894E+01  0.5027E+02
    -16.283  0.3055E+01  0.5067E+02
    -16.151  0.9292E+01  0.5190E+02
    -16.020  0.5857E+01  0.5267E+02
    -15.888  0.1305E+02  0.5439E+02
    -15.756  0.1196E+02  0.5596E+02
    -15.625  0.2132E+01  0.5624E+02
    -15.493  0.4219E+01  0.5680E+02
    -15.361  0.2750E+01  0.5716E+02
    -15.230  0.1018E+02  0.5850E+02
    -15.098  0.2206E+02  0.6141E+02
    -14.966  0.4731E+01  0.6203E+02
    -14.834  0.1148E+02  0.6354E+02
    -14.703  0.1043E+02  0.6491E+02
    -14.571  0.6399E+01  0.6576E+02
    -14.439  0.1575E+02  0.6783E+02
    -14.308  0.4661E+01  0.6844E+02
    -14.176  0.1061E+01  0.6858E+02
    -14.044  0.4046E+01  0.6912E+02
    -13.913  0.1006E+02  0.7044E+02
    -13.781  0.1679E+02  0.7265E+02
    -13.649  0.1784E+02  0.7500E+02
    -13.518  0.1700E+01  0.7523E+02
    -13.386  0.2497E+01  0.7556E+02
    -13.254  0.5026E+00  0.7562E+02
    -13.122  0.1121E+02  0.7710E+02
    -12.991  0.1387E+02  0.7892E+02
    -12.859  0.2047E+02  0.8162E+02
    -12.727  0.1195E+01  0.8178E+02
    -12.596  0.4850E+01  0.8242E+02
    -12.464  0.1758E+02  0.8473E+02
    -12.332  0.1084E+02  0.8616E+02
    -12.201  0.3631E+01  0.8664E+02
    -12.069  0.3165E+01  0.8705E+02
    -11.937  0.1216E+02  0.8865E+02
    -11.805  0.3630E+01  0.8913E+02
    -11.674  0.1603E+02  0.9124E+02
    -11.542  0.1775E+02  0.9358E+02
    -11.410  0.1349E+02  0.9536E+02
    -11.279  0.8467E+01  0.9647E+02
    -11.147  0.5538E+01  0.9720E+02
    -11.015  0.7779E+01  0.9823E+02
    -10.884  0.1301E+02  0.9994E+02
    -10.752  0.1693E+02  0.1022E+03
    -10.620  0.2030E+01  0.1024E+03
    -10.489  0.2053E+02  0.1051E+03
    -10.357  0.3875E+01  0.1057E+03
    -10.225  0.2468E+02  0.1089E+03
    -10.093  0.2534E+02  0.1122E+03
     -9.962  0.1837E+02  0.1147E+03
     -9.830  0.1492E+02  0.1166E+03
     -9.698  0.1731E+02  0.1189E+03
     -9.567  0.2770E+02  0.1226E+03
     -9.435  0.2074E+02  0.1253E+03
     -9.303  0.2744E+02  0.1289E+03
     -9.172  0.2344E+02  0.1320E+03
     -9.040  0.2862E+02  0.1358E+03
     -8.908  0.2028E+02  0.1384E+03
     -8.777  0.1737E+02  0.1407E+03
     -8.645  0.2349E+02  0.1438E+03
     -8.513  0.1734E+02  0.1461E+03
     -8.381  0.1641E+02  0.1482E+03
     -8.250  0.1530E+02  0.1503E+03
     -8.118  0.1607E+02  0.1524E+03
     -7.986  0.2866E+02  0.1562E+03
     -7.855  0.1617E+02  0.1583E+03
     -7.723  0.1629E+02  0.1604E+03
     -7.591  0.8110E+01  0.1615E+03
     -7.460  0.2155E+01  0.1618E+03
     -7.328  0.1774E+02  0.1641E+03
     -7.196  0.3231E+02  0.1684E+03
     -7.065  0.1559E+02  0.1704E+03
     -6.933  0.4515E+01  0.1710E+03
     -6.801  0.1918E+02  0.1735E+03
     -6.669  0.1276E+02  0.1752E+03
     -6.538  0.1596E+02  0.1773E+03
     -6.406  0.7092E+01  0.1783E+03
     -6.274  0.1251E+02  0.1799E+03
     -6.143  0.1537E+02  0.1819E+03
     -6.011  0.1369E+02  0.1837E+03
     -5.879  0.2025E+02  0.1864E+03
     -5.748  0.7728E+01  0.1874E+03
     -5.616  0.1371E+02  0.1892E+03
     -5.484  0.3270E+01  0.1897E+03
     -5.352  0.7907E+01  0.1907E+03
     -5.221  0.8601E+01  0.1918E+03
     -5.089  0.1188E+02  0.1934E+03
     -4.957  0.1840E+02  0.1958E+03
     -4.826  0.1497E+02  0.1978E+03
     -4.694  0.3190E+01  0.1982E+03
     -4.562  0.8121E-01  0.1982E+03
     -4.431  0.3869E-04  0.1982E+03
     -4.299  0.3048E+01  0.1986E+03
     -4.167  0.1738E+02  0.2009E+03
     -4.036  0.4883E+01  0.2016E+03
     -3.904  0.8083E-03  0.2016E+03
     -3.772  0.4666E+00  0.2016E+03
     -3.640  0.2894E+01  0.2020E+03
     -3.509  0.2683E+00  0.2020E+03
     -3.377  0.4407E+01  0.2026E+03
     -3.245  0.1231E+02  0.2042E+03
     -3.114  0.1085E+02  0.2057E+03
     -2.982  0.2600E+01  0.2060E+03
     -2.850  0.2513E+01  0.2063E+03
     -2.719  0.9164E+01  0.2075E+03
     -2.587  0.8386E-01  0.2076E+03
     -2.455  0.9047E-01  0.2076E+03
     -2.324  0.3170E+01  0.2080E+03
     -2.192  0.2863E+01  0.2084E+03
     -2.060  0.6262E+00  0.2084E+03
     -1.928  0.6496E-05  0.2084E+03
     -1.797  0.3017E-07  0.2084E+03
     -1.665  0.1840E+00  0.2085E+03
     -1.533  0.9516E+01  0.2097E+03
     -1.402  0.1259E+02  0.2114E+03
     -1.270  0.3021E+01  0.2118E+03
     -1.138  0.1251E-03  0.2118E+03
     -1.007  0.1151E+01  0.2119E+03
     -0.875  0.1097E+02  0.2134E+03
     -0.743  0.2308E+02  0.2164E+03
     -0.611  0.1829E+02  0.2188E+03
     -0.480  0.5334E+01  0.2195E+03
     -0.348  0.2555E+00  0.2196E+03
     -0.216  0.4567E+01  0.2202E+03
     -0.085  0.1130E+02  0.2216E+03
      0.047  0.1042E+02  0.2230E+03
      0.179  0.8407E+00  0.2231E+03
      0.310  0.1628E+02  0.2253E+03
      0.442  0.7527E+01  0.2263E+03
      0.574  0.3216E+01  0.2267E+03
      0.705  0.1110E+02  0.2282E+03
      0.837  0.1674E+02  0.2304E+03
      0.969  0.6338E+01  0.2312E+03
      1.101  0.1101E+02  0.2326E+03
      1.232  0.1490E+02  0.2346E+03
      1.364  0.8312E+01  0.2357E+03
      1.496  0.1500E+02  0.2377E+03
      1.627  0.2301E+02  0.2407E+03
      1.759  0.1549E+02  0.2427E+03
      1.891  0.2756E+02  0.2464E+03
      2.022  0.8461E+01  0.2475E+03
      2.154  0.1618E+02  0.2496E+03
      2.286  0.2651E+02  0.2531E+03
      2.417  0.3307E+02  0.2575E+03
      2.549  0.9253E+01  0.2587E+03
      2.681  0.6226E+01  0.2595E+03
      2.813  0.8069E+01  0.2606E+03
      2.944  0.6123E+01  0.2614E+03
      3.076  0.9216E+01  0.2626E+03
      3.208  0.2436E+01  0.2629E+03
      3.339  0.1547E+01  0.2631E+03
      3.471  0.9928E-03  0.2631E+03
      3.603  0.1983E+01  0.2634E+03
      3.734  0.1391E+01  0.2636E+03
      3.866  0.1338E-03  0.2636E+03
      3.998  0.6390E-06  0.2636E+03
      4.130  0.2963E+00  0.2636E+03
      4.261  0.3049E+01  0.2640E+03
      4.393  0.2999E-01  0.2640E+03
      4.525  0.1844E-08  0.2640E+03
      4.656  0.0000E+00  0.2640E+03
      4.788  0.0000E+00  0.2640E+03
      4.920  0.0000E+00  0.2640E+03
      5.051  0.0000E+00  0.2640E+03
      5.183  0.0000E+00  0.2640E+03
      5.315  0.0000E+00  0.2640E+03
      5.446  0.0000E+00  0.2640E+03
      5.578  0.0000E+00  0.2640E+03
      5.710  0.0000E+00  0.2640E+03
      5.842  0.0000E+00  0.2640E+03
      5.973  0.0000E+00  0.2640E+03
