<?xml version="1.0" encoding="ISO-8859-1"?>
<modeling>
 <generator>
  <i name="program" type="string">vasp </i>
  <i name="version" type="string">5.4.4.18Apr17-6-g9f103f2a35  </i>
  <i name="subversion" type="string">(build Aug 13 2022 23:40:43) complex            parallel </i>
  <i name="platform" type="string">LinuxIFC </i>
  <i name="date" type="string">2024 11 10 </i>
  <i name="time" type="string">04:18:52 </i>
 </generator>
 <incar>
  <i type="int" name="ISTART">     1</i>
  <i type="string" name="PREC">accurate</i>
  <i type="string" name="ALGO"> F          N:DAV,fine,slow</i>
  <i type="logical" name="ADDGRID"> T  </i>
  <i type="int" name="ISPIN">     1</i>
  <i type="int" name="ICHARG">     1</i>
  <i type="int" name="NELM">   300</i>
  <i type="int" name="IBRION">    -1</i>
  <i name="EDIFF">      0.00001000</i>
  <i name="EDIFFG">     -0.00100000</i>
  <i type="int" name="NSW">     1</i>
  <i type="int" name="ISIF">     2</i>
  <i name="ENCUT">    400.00000000</i>
  <i type="logical" name="LREAL"> F  </i>
  <i type="int" name="ISMEAR">     0</i>
  <i name="SIGMA">      0.05000000</i>
  <i type="logical" name="LWAVE"> F  </i>
  <i type="logical" name="LCHARG"> F  </i>
  <v type="int" name="KPOINT_BSE">    -1     0     0     0</v>
  <i type="int" name="NELM">   300</i>
 </incar>
 <structure name="primitive_cell" >
  <crystal>
   <varray name="basis" >
    <v>      12.30000019       0.00000000       0.00000000 </v>
    <v>       6.15000080      10.65211222       0.00000000 </v>
    <v>       0.00000000       0.00000000      20.00000000 </v>
   </varray>
   <i name="volume">   2620.41964732 </i>
   <varray name="rec_basis" >
    <v>       0.08130081      -0.04693905       0.00000000 </v>
    <v>       0.00000000       0.09387809       0.00000000 </v>
    <v>       0.00000000       0.00000000       0.05000000 </v>
   </varray>
  </crystal>
  <varray name="positions" >
   <v>       0.00000000       0.00000000       0.41799748 </v>
   <v>       0.06666667       0.06666660       0.41800609 </v>
   <v>      -0.13333333       0.06666660       0.41800609 </v>
   <v>       0.06666667      -0.13333340       0.41800609 </v>
   <v>      -0.20000000       0.20000000       0.41799748 </v>
   <v>       0.20000000      -0.20000000       0.41799748 </v>
   <v>       0.20000000       0.00000000       0.41799748 </v>
   <v>      -0.20000000       0.00000000       0.41799748 </v>
   <v>       0.00000000       0.20000000       0.41799748 </v>
   <v>       0.00000000      -0.20000000       0.41799748 </v>
   <v>      -0.13333333       0.26666660       0.41800609 </v>
   <v>       0.26666667      -0.13333340       0.41800609 </v>
   <v>      -0.13333333      -0.13333340       0.41800609 </v>
   <v>       0.06666667       0.26666660       0.41800609 </v>
   <v>      -0.33333333       0.26666660       0.41800609 </v>
   <v>       0.26666667       0.06666660       0.41800609 </v>
   <v>      -0.33333333       0.06666660       0.41800609 </v>
   <v>       0.26666667      -0.33333340       0.41800609 </v>
   <v>       0.06666667      -0.33333340       0.41800609 </v>
   <v>      -0.40000000       0.20000000       0.41799748 </v>
   <v>       0.40000000      -0.20000000       0.41799748 </v>
   <v>      -0.20000000       0.40000000       0.41799748 </v>
   <v>       0.20000000      -0.40000000       0.41799748 </v>
   <v>       0.20000000       0.20000000       0.41799748 </v>
   <v>      -0.20000000      -0.20000000       0.41799748 </v>
   <v>      -0.40000000       0.40000000       0.41799748 </v>
   <v>       0.40000000      -0.40000000       0.41799748 </v>
   <v>       0.40000000       0.00000000       0.41799748 </v>
   <v>      -0.40000000       0.00000000       0.41799748 </v>
   <v>       0.00000000       0.40000000       0.41799748 </v>
   <v>       0.00000000      -0.40000000       0.41799748 </v>
   <v>      -0.13333333       0.46666660       0.41800609 </v>
   <v>      -0.33333333       0.46666660       0.41800609 </v>
   <v>       0.46666667      -0.13333340       0.41800609 </v>
   <v>       0.46666667      -0.33333340       0.41800609 </v>
   <v>      -0.33333333      -0.13333340       0.41800609 </v>
   <v>      -0.13333333      -0.33333340       0.41800609 </v>
   <v>       0.46666667       0.26666660       0.41800609 </v>
   <v>       0.26666667       0.46666660       0.41800609 </v>
   <v>       0.26666667       0.26666660       0.41750609 </v>
   <v>       0.06666667       0.46666660       0.41800609 </v>
   <v>       0.46666667       0.46666660       0.41800609 </v>
   <v>       0.46666667       0.06666660       0.41800609 </v>
   <v>       0.40000000       0.40000000       0.41799748 </v>
   <v>      -0.40000000      -0.40000000       0.41799748 </v>
   <v>       0.40000000       0.20000000       0.41799748 </v>
   <v>      -0.40000000      -0.20000000       0.41799748 </v>
   <v>       0.20000000       0.40000000       0.41799748 </v>
   <v>      -0.20000000      -0.40000000       0.41799748 </v>
   <v>       0.40000000       0.40000000       0.46800609 </v>
   <v>      -0.33333333      -0.33333340       0.41800609 </v>
  </varray>
 </structure>
 <varray name="primitive_index" >
  <v type="int" >        1 </v>
  <v type="int" >       26 </v>
  <v type="int" >       30 </v>
  <v type="int" >       46 </v>
  <v type="int" >       10 </v>
  <v type="int" >       22 </v>
  <v type="int" >        2 </v>
  <v type="int" >        5 </v>
  <v type="int" >        6 </v>
  <v type="int" >       21 </v>
  <v type="int" >       35 </v>
  <v type="int" >       47 </v>
  <v type="int" >       50 </v>
  <v type="int" >       31 </v>
  <v type="int" >       34 </v>
  <v type="int" >       27 </v>
  <v type="int" >       29 </v>
  <v type="int" >       42 </v>
  <v type="int" >       41 </v>
  <v type="int" >        9 </v>
  <v type="int" >       23 </v>
  <v type="int" >       15 </v>
  <v type="int" >       17 </v>
  <v type="int" >        7 </v>
  <v type="int" >       25 </v>
  <v type="int" >       14 </v>
  <v type="int" >       18 </v>
  <v type="int" >        3 </v>
  <v type="int" >        4 </v>
  <v type="int" >       11 </v>
  <v type="int" >       16 </v>
  <v type="int" >       40 </v>
  <v type="int" >       39 </v>
  <v type="int" >       48 </v>
  <v type="int" >       43 </v>
  <v type="int" >       49 </v>
  <v type="int" >       45 </v>
  <v type="int" >       33 </v>
  <v type="int" >       37 </v>
  <v type="int" >       32 </v>
  <v type="int" >       36 </v>
  <v type="int" >       38 </v>
  <v type="int" >       28 </v>
  <v type="int" >       13 </v>
  <v type="int" >       19 </v>
  <v type="int" >        8 </v>
  <v type="int" >       24 </v>
  <v type="int" >       12 </v>
  <v type="int" >       20 </v>
  <v type="int" >       51 </v>
  <v type="int" >       44 </v>
 </varray>
 <kpoints>
  <generation param="Gamma">
   <v type="int" name="divisions">       3        3        1 </v>
   <v name="usershift">      0.00000000       0.00000000       0.00000000 </v>
   <v name="genvec1">      0.33333333      -0.00000000       0.00000000 </v>
   <v name="genvec2">      0.00000000       0.33333333       0.00000000 </v>
   <v name="genvec3">      0.00000000       0.00000000       1.00000000 </v>
   <v name="shift">      0.00000000       0.00000000       0.00000000 </v>
  </generation>
  <varray name="kpointlist" >
   <v>       0.00000000       0.00000000       0.00000000 </v>
   <v>       0.33333333       0.00000000       0.00000000 </v>
   <v>       0.33333333       0.33333333       0.00000000 </v>
   <v>      -0.33333333       0.33333333       0.00000000 </v>
  </varray>
  <varray name="weights" >
   <v>       0.11111111 </v>
   <v>       0.44444444 </v>
   <v>       0.22222222 </v>
   <v>       0.22222222 </v>
  </varray>
 </kpoints>
 <parameters>
  <separator name="general" >
   <i type="string" name="SYSTEM"></i>
   <i type="logical" name="LCOMPAT"> F  </i>
  </separator>
  <separator name="electronic" >
   <i type="string" name="PREC">accura</i>
   <i name="ENMAX">    400.00000000</i>
   <i name="ENAUG">    644.87300000</i>
   <i name="EDIFF">      0.00001000</i>
   <i type="int" name="IALGO">    68</i>
   <i type="int" name="IWAVPR">    10</i>
   <i type="int" name="NBANDS">   132</i>
   <i name="NELECT">    206.00000000</i>
   <i type="int" name="TURBO">     0</i>
   <i type="int" name="IRESTART">     0</i>
   <i type="int" name="NREBOOT">     0</i>
   <i type="int" name="NMIN">     0</i>
   <i name="EREF">      0.00000000</i>
   <separator name="electronic smearing" >
    <i type="int" name="ISMEAR">     0</i>
    <i name="SIGMA">      0.05000000</i>
    <i name="KSPACING">      0.50000000</i>
    <i type="logical" name="KGAMMA"> T  </i>
   </separator>
   <separator name="electronic projectors" >
    <i type="logical" name="LREAL"> F  </i>
    <v name="ROPT">      0.00000000      0.00000000</v>
    <i type="int" name="LMAXPAW">  -100</i>
    <i type="int" name="LMAXMIX">     2</i>
    <i type="logical" name="NLSPLINE"> F  </i>
   </separator>
   <separator name="electronic startup" >
    <i type="int" name="ISTART">     1</i>
    <i type="int" name="ICHARG">     1</i>
    <i type="int" name="INIWAV">     1</i>
   </separator>
   <separator name="electronic spin" >
    <i type="int" name="ISPIN">     1</i>
    <i type="logical" name="LNONCOLLINEAR"> F  </i>
    <v name="MAGMOM">      1.00000000      1.00000000      1.00000000      1.00000000      1.00000000      1.00000000      1.00000000      1.00000000      1.00000000      1.00000000      1.00000000      1.00000000      1.00000000      1.00000000      1.00000000      1.00000000      1.00000000      1.00000000      1.00000000      1.00000000
      1.00000000      1.00000000      1.00000000      1.00000000      1.00000000      1.00000000      1.00000000      1.00000000      1.00000000      1.00000000      1.00000000      1.00000000      1.00000000      1.00000000      1.00000000      1.00000000      1.00000000      1.00000000      1.00000000      1.00000000
      1.00000000      1.00000000      1.00000000      1.00000000      1.00000000      1.00000000      1.00000000      1.00000000      1.00000000      1.00000000      1.00000000</v>
    <i name="NUPDOWN">     -1.00000000</i>
    <i type="logical" name="LSORBIT"> F  </i>
    <v name="SAXIS">      0.00000000      0.00000000      1.00000000</v>
    <i type="logical" name="LSPIRAL"> F  </i>
    <v name="QSPIRAL">      0.00000000      0.00000000      0.00000000</v>
    <i type="logical" name="LZEROZ"> F  </i>
   </separator>
   <separator name="electronic exchange-correlation" >
    <i type="logical" name="LASPH"> F  </i>
    <i type="logical" name="LMETAGGA"> F  </i>
   </separator>
   <separator name="electronic convergence" >
    <i type="int" name="NELM">   300</i>
    <i type="int" name="NELMDL">     0</i>
    <i type="int" name="NELMIN">     2</i>
    <i name="ENINI">    400.00000000</i>
    <separator name="electronic convergence detail" >
     <i type="logical" name="LDIAG"> T  </i>
     <i type="logical" name="LSUBROT"> F  </i>
     <i name="WEIMIN">      0.00000000</i>
     <i name="EBREAK">      0.00000002</i>
     <i name="DEPER">      0.30000000</i>
     <i type="int" name="NRMM">     4</i>
     <i name="TIME">      0.40000000</i>
    </separator>
   </separator>
   <separator name="electronic mixer" >
    <i name="AMIX">      0.40000000</i>
    <i name="BMIX">      1.00000000</i>
    <i name="AMIN">      0.10000000</i>
    <i name="AMIX_MAG">      1.60000000</i>
    <i name="BMIX_MAG">      1.00000000</i>
    <separator name="electronic mixer details" >
     <i type="int" name="IMIX">     4</i>
     <i type="logical" name="MIXFIRST"> F  </i>
     <i type="int" name="MAXMIX">   -45</i>
     <i name="WC">    100.00000000</i>
     <i type="int" name="INIMIX">     1</i>
     <i type="int" name="MIXPRE">     1</i>
     <i type="int" name="MREMOVE">     5</i>
    </separator>
   </separator>
   <separator name="electronic dipolcorrection" >
    <i type="logical" name="LDIPOL"> F  </i>
    <i type="logical" name="LMONO"> F  </i>
    <i type="int" name="IDIPOL">     0</i>
    <i name="EPSILON">      1.00000000</i>
    <v name="DIPOL">   -100.00000000   -100.00000000   -100.00000000</v>
    <i name="EFIELD">      0.00000000</i>
   </separator>
  </separator>
  <separator name="grids" >
   <i type="int" name="NGX">    80</i>
   <i type="int" name="NGY">    80</i>
   <i type="int" name="NGZ">   140</i>
   <i type="int" name="NGXF">   160</i>
   <i type="int" name="NGYF">   160</i>
   <i type="int" name="NGZF">   280</i>
   <i type="logical" name="ADDGRID"> T  </i>
  </separator>
  <separator name="ionic" >
   <i type="int" name="NSW">     1</i>
   <i type="int" name="IBRION">    -1</i>
   <i type="int" name="MDALGO">     0</i>
   <i type="int" name="ISIF">     2</i>
   <i name="PSTRESS">      0.00000000</i>
   <i name="EDIFFG">     -0.00100000</i>
   <i type="int" name="NFREE">     0</i>
   <i name="POTIM">      0.50000000</i>
   <i name="SMASS">     -3.00000000</i>
   <i name="SCALEE">      1.00000000</i>
  </separator>
  <separator name="ionic md" >
   <i name="TEBEG">      0.00010000</i>
   <i name="TEEND">      0.00010000</i>
   <i type="int" name="NBLOCK">     1</i>
   <i type="int" name="KBLOCK">     1</i>
   <i type="int" name="NPACO">   256</i>
   <i name="APACO">     16.00000000</i>
  </separator>
  <separator name="symmetry" >
   <i type="int" name="ISYM">     2</i>
   <i name="SYMPREC">      0.00001000</i>
  </separator>
  <separator name="dos" >
   <i type="int" name="LORBIT">     0</i>
   <v name="RWIGS">     -1.00000000     -1.00000000</v>
   <i type="int" name="NEDOS">   301</i>
   <i name="EMIN">     10.00000000</i>
   <i name="EMAX">    -10.00000000</i>
   <i name="EFERMI">      0.00000000</i>
  </separator>
  <separator name="writing" >
   <i type="int" name="NWRITE">     2</i>
   <i type="logical" name="LWAVE"> F  </i>
   <i type="logical" name="LDOWNSAMPLE"> F  </i>
   <i type="logical" name="LCHARG"> F  </i>
   <i type="logical" name="LPARD"> F  </i>
   <i type="logical" name="LVTOT"> F  </i>
   <i type="logical" name="LVHAR"> F  </i>
   <i type="logical" name="LELF"> F  </i>
   <i type="logical" name="LOPTICS"> F  </i>
   <v name="STM">      0.00000000      0.00000000      0.00000000      0.00000000      0.00000000      0.00000000      0.00000000</v>
  </separator>
  <separator name="performance" >
   <i type="int" name="NPAR">     6</i>
   <i type="int" name="NSIM">     4</i>
   <i type="int" name="NBLK">    -1</i>
   <i type="logical" name="LPLANE"> T  </i>
   <i type="logical" name="LSCALAPACK"> T  </i>
   <i type="logical" name="LSCAAWARE"> F  </i>
   <i type="logical" name="LSCALU"> F  </i>
   <i type="logical" name="LASYNC"> F  </i>
   <i type="logical" name="LORBITALREAL"> F  </i>
  </separator>
  <separator name="miscellaneous" >
   <i type="int" name="IDIOT">     3</i>
   <i type="int" name="ISPECIAL">     0</i>
   <i type="logical" name="LMUSIC"> F  </i>
   <v name="POMASS">     12.01100000     16.00000000</v>
   <v name="DARWINR">      0.00000000      0.00000000</v>
   <v name="DARWINV">      1.00000000      1.00000000</v>
   <i type="logical" name="LCORR"> T  </i>
  </separator>
  <i type="logical" name="GGA_COMPAT"> T  </i>
  <i type="logical" name="LBERRY"> F  </i>
  <i type="int" name="ICORELEVEL">     0</i>
  <i type="logical" name="LDAU"> F  </i>
  <i type="int" name="I_CONSTRAINED_M">     0</i>
  <separator name="electronic exchange-correlation" >
   <i type="string" name="GGA">--</i>
   <i type="int" name="VOSKOWN">     0</i>
   <i type="logical" name="LHFCALC"> F  </i>
   <i type="string" name="PRECFOCK"></i>
   <i type="logical" name="LSYMGRAD"> F  </i>
   <i type="logical" name="LHFONE"> F  </i>
   <i type="logical" name="LRHFCALC"> F  </i>
   <i type="logical" name="LTHOMAS"> F  </i>
   <i type="logical" name="LMODELHF"> F  </i>
   <i name="ENCUT4O">     -1.00000000</i>
   <i type="int" name="EXXOEP">     0</i>
   <i type="int" name="FOURORBIT">     0</i>
   <i name="AEXX">      0.00000000</i>
   <i name="HFALPHA">      0.00000000</i>
   <i name="MCALPHA">      0.00000000</i>
   <i name="ALDAX">      1.00000000</i>
   <i name="AGGAX">      1.00000000</i>
   <i name="ALDAC">      1.00000000</i>
   <i name="AGGAC">      1.00000000</i>
   <i type="int" name="NKREDX">     1</i>
   <i type="int" name="NKREDY">     1</i>
   <i type="int" name="NKREDZ">     1</i>
   <i type="logical" name="SHIFTRED"> F  </i>
   <i type="logical" name="ODDONLY"> F  </i>
   <i type="logical" name="EVENONLY"> F  </i>
   <i type="int" name="LMAXFOCK">     0</i>
   <i type="int" name="NMAXFOCKAE">     0</i>
   <i type="logical" name="LFOCKAEDFT"> F  </i>
   <i name="HFSCREEN">      0.00000000</i>
   <i name="HFSCREENC">      0.00000000</i>
   <i type="int" name="NBANDSGWLOW">     0</i>
  </separator>
  <separator name="vdW DFT" >
   <i type="logical" name="LUSE_VDW"> F  </i>
   <i name="Zab_VDW">     -0.84910000</i>
   <i name="PARAM1">      0.12340000</i>
   <i name="PARAM2">      1.00000000</i>
   <i name="PARAM3">      0.00000000</i>
  </separator>
  <separator name="model GW" >
   <i type="int" name="MODEL_GW">     0</i>
   <i name="MODEL_EPS0">     30.82846644</i>
   <i name="MODEL_ALPHA">      1.00000000</i>
  </separator>
  <separator name="linear response parameters" >
   <i type="logical" name="LEPSILON"> F  </i>
   <i type="logical" name="LRPA"> F  </i>
   <i type="logical" name="LNABLA"> F  </i>
   <i type="logical" name="LVEL"> F  </i>
   <i type="int" name="KINTER">     0</i>
   <i name="CSHIFT">      0.10000000</i>
   <i name="OMEGAMAX">     -1.00000000</i>
   <i name="DEG_THRESHOLD">      0.00200000</i>
   <i name="RTIME">     -0.10000000</i>
   <i name="WPLASMAI">      0.00000000</i>
   <v name="DFIELD">      0.00000000      0.00000000      0.00000000</v>
   <v name="WPLASMA">      0.00000000      0.00000000      0.00000000      0.00000000      0.00000000      0.00000000      0.00000000      0.00000000      0.00000000</v>
  </separator>
  <separator name="orbital magnetization" >
   <i type="logical" name="NUCIND"> F  </i>
   <v name="MAGPOS">      0.00000000      0.00000000      0.00000000</v>
   <i type="logical" name="LNICSALL"> T  </i>
   <i type="logical" name="ORBITALMAG"> F  </i>
   <i type="logical" name="LMAGBLOCH"> F  </i>
   <i type="logical" name="LCHIMAG"> F  </i>
   <i type="logical" name="LGAUGE"> T  </i>
   <i type="int" name="MAGATOM">     0</i>
   <v name="MAGDIPOL">      0.00000000      0.00000000      0.00000000</v>
   <v name="AVECCONST">      0.00000000      0.00000000      0.00000000</v>
  </separator>
  <separator name="response functions" >
   <i type="logical" name="LADDER"> F  </i>
   <i type="logical" name="LRPAFORCE"> F  </i>
   <i type="logical" name="LFXC"> F  </i>
   <i type="logical" name="LHARTREE"> T  </i>
   <i type="int" name="IBSE">     0</i>
   <v type="int" name="KPOINT">    -1     0     0     0</v>
   <i type="logical" name="LTCTE"> F  </i>
   <i type="logical" name="LTETE"> F  </i>
   <i type="logical" name="LTRIPLET"> F  </i>
   <i type="logical" name="LFXCEPS"> F  </i>
   <i type="logical" name="LFXHEG"> F  </i>
   <i type="int" name="NATURALO">     2</i>
   <i type="logical" name="L2ORDER"> F  </i>
   <i type="logical" name="LMP2LT"> F  </i>
   <i type="logical" name="LUSEW"> F  </i>
   <i name="ENCUTGW">     -2.00000000</i>
   <i name="ENCUTGWSOFT">     -2.00000000</i>
   <i name="ENCUTLF">     -1.00000000</i>
   <i type="int" name="LMAXMP2">    -1</i>
   <i name="SCISSOR">      0.00000000</i>
   <i type="int" name="NOMEGA">     0</i>
   <i type="int" name="NOMEGAR">     0</i>
   <i type="int" name="NBANDSGW">    -1</i>
   <i type="int" name="NBANDSO">    -1</i>
   <i type="int" name="NBANDSV">    -1</i>
   <i type="int" name="NELM">   300</i>
   <i type="int" name="NELMHF">     1</i>
   <i type="int" name="DIM">     3</i>
   <i type="int" name="ANTIRES">     0</i>
   <i name="OMEGAMAX">    -30.00000000</i>
   <i name="OMEGAMIN">    -30.00000000</i>
   <i name="OMEGATL">   -200.00000000</i>
   <i type="int" name="OMEGAGRID">   140</i>
   <i name="CSHIFT">     -0.10000000</i>
   <i type="logical" name="SELFENERGY"> F  </i>
   <i type="logical" name="LSPECTRAL"> F  </i>
   <i type="logical" name="LSPECTRALGW"> F  </i>
   <i type="logical" name="LSINGLES"> F  </i>
   <i type="logical" name="LFERMIGW"> F  </i>
   <i type="logical" name="ODDONLYGW"> F  </i>
   <i type="logical" name="EVENONLYGW"> F  </i>
   <i type="int" name="NKREDLFX">     1</i>
   <i type="int" name="NKREDLFY">     1</i>
   <i type="int" name="NKREDLFZ">     1</i>
   <i type="int" name="MAXMEM">  2800</i>
   <i type="int" name="TELESCOPE">     0</i>
   <i type="int" name="TAUPAR">     1</i>
   <i type="int" name="OMEGAPAR">    -1</i>
   <i name="LAMBDA">      1.00000000</i>
  </separator>
  <separator name="External order field" >
   <i name="OFIELD_KAPPA">      0.00000000</i>
   <v name="OFIELD_K">      0.00000000      0.00000000      0.00000000</v>
   <i name="OFIELD_Q6_NEAR">      0.00000000</i>
   <i name="OFIELD_Q6_FAR">      0.00000000</i>
   <i name="OFIELD_A">      0.00000000</i>
  </separator>
 </parameters>
 <atominfo>
  <atoms>      51 </atoms>
  <types>       2 </types>
  <array name="atoms" >
   <dimension dim="1">ion</dimension>
   <field type="string">element</field>
   <field type="int">atomtype</field>
   <set>
    <rc><c>C </c><c>   1</c></rc>
    <rc><c>C </c><c>   1</c></rc>
    <rc><c>C </c><c>   1</c></rc>
    <rc><c>C </c><c>   1</c></rc>
    <rc><c>C </c><c>   1</c></rc>
    <rc><c>C </c><c>   1</c></rc>
    <rc><c>C </c><c>   1</c></rc>
    <rc><c>C </c><c>   1</c></rc>
    <rc><c>C </c><c>   1</c></rc>
    <rc><c>C </c><c>   1</c></rc>
    <rc><c>C </c><c>   1</c></rc>
    <rc><c>C </c><c>   1</c></rc>
    <rc><c>C </c><c>   1</c></rc>
    <rc><c>C </c><c>   1</c></rc>
    <rc><c>C </c><c>   1</c></rc>
    <rc><c>C </c><c>   1</c></rc>
    <rc><c>C </c><c>   1</c></rc>
    <rc><c>C </c><c>   1</c></rc>
    <rc><c>C </c><c>   1</c></rc>
    <rc><c>C </c><c>   1</c></rc>
    <rc><c>C </c><c>   1</c></rc>
    <rc><c>C </c><c>   1</c></rc>
    <rc><c>C </c><c>   1</c></rc>
    <rc><c>C </c><c>   1</c></rc>
    <rc><c>C </c><c>   1</c></rc>
    <rc><c>C </c><c>   1</c></rc>
    <rc><c>C </c><c>   1</c></rc>
    <rc><c>C </c><c>   1</c></rc>
    <rc><c>C </c><c>   1</c></rc>
    <rc><c>C </c><c>   1</c></rc>
    <rc><c>C </c><c>   1</c></rc>
    <rc><c>C </c><c>   1</c></rc>
    <rc><c>C </c><c>   1</c></rc>
    <rc><c>C </c><c>   1</c></rc>
    <rc><c>C </c><c>   1</c></rc>
    <rc><c>C </c><c>   1</c></rc>
    <rc><c>C </c><c>   1</c></rc>
    <rc><c>C </c><c>   1</c></rc>
    <rc><c>C </c><c>   1</c></rc>
    <rc><c>C </c><c>   1</c></rc>
    <rc><c>C </c><c>   1</c></rc>
    <rc><c>C </c><c>   1</c></rc>
    <rc><c>C </c><c>   1</c></rc>
    <rc><c>C </c><c>   1</c></rc>
    <rc><c>C </c><c>   1</c></rc>
    <rc><c>C </c><c>   1</c></rc>
    <rc><c>C </c><c>   1</c></rc>
    <rc><c>C </c><c>   1</c></rc>
    <rc><c>C </c><c>   1</c></rc>
    <rc><c>C </c><c>   1</c></rc>
    <rc><c>O </c><c>   2</c></rc>
   </set>
  </array>
  <array name="atomtypes" >
   <dimension dim="1">type</dimension>
   <field type="int">atomspertype</field>
   <field type="string">element</field>
   <field>mass</field>
   <field>valence</field>
   <field type="string">pseudopotential</field>
   <set>
    <rc><c>  50</c><c>C </c><c>     12.01100000</c><c>      4.00000000</c><c>  PAW_PBE C 08Apr2002                   </c></rc>
    <rc><c>   1</c><c>O </c><c>     16.00000000</c><c>      6.00000000</c><c>  PAW_PBE O 08Apr2002                   </c></rc>
   </set>
  </array>
 </atominfo>
 <structure name="initialpos" >
  <crystal>
   <varray name="basis" >
    <v>      12.30000019       0.00000000       0.00000000 </v>
    <v>       6.15000080      10.65211222       0.00000000 </v>
    <v>       0.00000000       0.00000000      20.00000000 </v>
   </varray>
   <i name="volume">   2620.41964732 </i>
   <varray name="rec_basis" >
    <v>       0.08130081      -0.04693905       0.00000000 </v>
    <v>       0.00000000       0.09387809       0.00000000 </v>
    <v>       0.00000000       0.00000000       0.05000000 </v>
   </varray>
  </crystal>
  <varray name="positions" >
   <v>       0.00000000       0.00000000       0.41799748 </v>
   <v>       0.20000000       0.00000000       0.41799748 </v>
   <v>       0.40000000       0.00000000       0.41799748 </v>
   <v>       0.60000000       0.00000000       0.41799748 </v>
   <v>       0.80000000       0.00000000       0.41799748 </v>
   <v>       0.00000000       0.20000000       0.41799748 </v>
   <v>       0.20000000       0.20000000       0.41799748 </v>
   <v>       0.40000000       0.20000000       0.41799748 </v>
   <v>       0.60000000       0.20000000       0.41799748 </v>
   <v>       0.80000000       0.20000000       0.41799748 </v>
   <v>       0.00000000       0.40000000       0.41799748 </v>
   <v>       0.20000000       0.40000000       0.41799748 </v>
   <v>       0.40000000       0.40000000       0.41799748 </v>
   <v>       0.60000000       0.40000000       0.41799748 </v>
   <v>       0.80000000       0.40000000       0.41799748 </v>
   <v>       0.00000000       0.60000000       0.41799748 </v>
   <v>       0.20000000       0.60000000       0.41799748 </v>
   <v>       0.40000000       0.60000000       0.41799748 </v>
   <v>       0.60000000       0.60000000       0.41799748 </v>
   <v>       0.80000000       0.60000000       0.41799748 </v>
   <v>       0.00000000       0.80000000       0.41799748 </v>
   <v>       0.20000000       0.80000000       0.41799748 </v>
   <v>       0.40000000       0.80000000       0.41799748 </v>
   <v>       0.60000000       0.80000000       0.41799748 </v>
   <v>       0.80000000       0.80000000       0.41799748 </v>
   <v>       0.06666667       0.06666660       0.41800609 </v>
   <v>       0.26666667       0.06666660       0.41800609 </v>
   <v>       0.46666667       0.06666660       0.41800609 </v>
   <v>       0.66666667       0.06666660       0.41800609 </v>
   <v>       0.86666667       0.06666660       0.41800609 </v>
   <v>       0.06666667       0.26666660       0.41800609 </v>
   <v>       0.26666667       0.26666660       0.41750609 </v>
   <v>       0.46666667       0.26666660       0.41800609 </v>
   <v>       0.66666667       0.26666660       0.41800609 </v>
   <v>       0.86666667       0.26666660       0.41800609 </v>
   <v>       0.06666667       0.46666660       0.41800609 </v>
   <v>       0.26666667       0.46666660       0.41800609 </v>
   <v>       0.46666667       0.46666660       0.41800609 </v>
   <v>       0.66666667       0.46666660       0.41800609 </v>
   <v>       0.86666667       0.46666660       0.41800609 </v>
   <v>       0.06666667       0.66666660       0.41800609 </v>
   <v>       0.26666667       0.66666660       0.41800609 </v>
   <v>       0.46666667       0.66666660       0.41800609 </v>
   <v>       0.66666667       0.66666660       0.41800609 </v>
   <v>       0.86666667       0.66666660       0.41800609 </v>
   <v>       0.06666667       0.86666660       0.41800609 </v>
   <v>       0.26666667       0.86666660       0.41800609 </v>
   <v>       0.46666667       0.86666660       0.41800609 </v>
   <v>       0.66666667       0.86666660       0.41800609 </v>
   <v>       0.86666667       0.86666660       0.41800609 </v>
   <v>       0.40000000       0.40000000       0.46800609 </v>
  </varray>
  <varray name="velocities" >
   <v>       0.00000000       0.00000000       0.00000000 </v>
   <v>       0.00000000       0.00000000       0.00000000 </v>
   <v>       0.00000000       0.00000000       0.00000000 </v>
   <v>       0.00000000       0.00000000       0.00000000 </v>
   <v>       0.00000000       0.00000000       0.00000000 </v>
   <v>       0.00000000       0.00000000       0.00000000 </v>
   <v>       0.00000000       0.00000000       0.00000000 </v>
   <v>       0.00000000       0.00000000       0.00000000 </v>
   <v>       0.00000000       0.00000000       0.00000000 </v>
   <v>       0.00000000       0.00000000       0.00000000 </v>
   <v>       0.00000000       0.00000000       0.00000000 </v>
   <v>       0.00000000       0.00000000       0.00000000 </v>
   <v>       0.00000000       0.00000000       0.00000000 </v>
   <v>       0.00000000       0.00000000       0.00000000 </v>
   <v>       0.00000000       0.00000000       0.00000000 </v>
   <v>       0.00000000       0.00000000       0.00000000 </v>
   <v>       0.00000000       0.00000000       0.00000000 </v>
   <v>       0.00000000       0.00000000       0.00000000 </v>
   <v>       0.00000000       0.00000000       0.00000000 </v>
   <v>       0.00000000       0.00000000       0.00000000 </v>
   <v>       0.00000000       0.00000000       0.00000000 </v>
   <v>       0.00000000       0.00000000       0.00000000 </v>
   <v>       0.00000000       0.00000000       0.00000000 </v>
   <v>       0.00000000       0.00000000       0.00000000 </v>
   <v>       0.00000000       0.00000000       0.00000000 </v>
   <v>       0.00000000       0.00000000       0.00000000 </v>
   <v>       0.00000000       0.00000000       0.00000000 </v>
   <v>       0.00000000       0.00000000       0.00000000 </v>
   <v>       0.00000000       0.00000000       0.00000000 </v>
   <v>       0.00000000       0.00000000       0.00000000 </v>
   <v>       0.00000000       0.00000000       0.00000000 </v>
   <v>       0.00000000       0.00000000       0.00000000 </v>
   <v>       0.00000000       0.00000000       0.00000000 </v>
   <v>       0.00000000       0.00000000       0.00000000 </v>
   <v>       0.00000000       0.00000000       0.00000000 </v>
   <v>       0.00000000       0.00000000       0.00000000 </v>
   <v>       0.00000000       0.00000000       0.00000000 </v>
   <v>       0.00000000       0.00000000       0.00000000 </v>
   <v>       0.00000000       0.00000000       0.00000000 </v>
   <v>       0.00000000       0.00000000       0.00000000 </v>
   <v>       0.00000000       0.00000000       0.00000000 </v>
   <v>       0.00000000       0.00000000       0.00000000 </v>
   <v>       0.00000000       0.00000000       0.00000000 </v>
   <v>       0.00000000       0.00000000       0.00000000 </v>
   <v>       0.00000000       0.00000000       0.00000000 </v>
   <v>       0.00000000       0.00000000       0.00000000 </v>
   <v>       0.00000000       0.00000000       0.00000000 </v>
   <v>       0.00000000       0.00000000       0.00000000 </v>
   <v>       0.00000000       0.00000000       0.00000000 </v>
   <v>       0.00000000       0.00000000       0.00000000 </v>
   <v>       0.00000000       0.00000000       0.00000000 </v>
  </varray>
 </structure>
 <calculation>
  <scstep>
   <time name="dav">    3.31    3.31</time>
   <time name="total">    3.82    3.83</time>
   <energy>
    <i name="alphaZ">     82.54348252 </i>
    <i name="ewald">  34516.38248005 </i>
    <i name="hartreedc"> -41034.70024068 </i>
    <i name="XCdc">    721.37969523 </i>
    <i name="pawpsdc">  22781.19595426 </i>
    <i name="pawaedc"> -22817.52509957 </i>
    <i name="eentropy">     -0.00044883 </i>
    <i name="bandstr">  -2491.40546206 </i>
    <i name="atom">   7788.62438962 </i>
    <i name="e_fr_energy">   -453.50524946 </i>
    <i name="e_wo_entrp">   -453.50480063 </i>
    <i name="e_0_energy">   -453.50502504 </i>
   </energy>
  </scstep>
  <scstep>
   <time name="diag">    0.64    0.64</time>
   <time name="diis">    3.00    3.00</time>
   <time name="orth">    0.03    0.03</time>
   <time name="total">    4.16    4.16</time>
   <energy>
    <i name="e_fr_energy">   -454.29887612 </i>
    <i name="e_wo_entrp">   -454.29878033 </i>
    <i name="e_0_energy">   -454.29882823 </i>
   </energy>
  </scstep>
  <scstep>
   <time name="diag">    0.63    0.63</time>
   <time name="diis">    3.26    3.26</time>
   <time name="orth">    0.03    0.03</time>
   <time name="total">    4.41    4.42</time>
   <energy>
    <i name="e_fr_energy">   -454.33998851 </i>
    <i name="e_wo_entrp">   -454.33987202 </i>
    <i name="e_0_energy">   -454.33993027 </i>
   </energy>
  </scstep>
  <scstep>
   <time name="diag">    0.63    0.63</time>
   <time name="diis">    3.09    3.10</time>
   <time name="orth">    0.03    0.03</time>
   <time name="total">    4.25    4.26</time>
   <energy>
    <i name="e_fr_energy">   -454.34320877 </i>
    <i name="e_wo_entrp">   -454.34310438 </i>
    <i name="e_0_energy">   -454.34315657 </i>
   </energy>
  </scstep>
  <scstep>
   <time name="diag">    0.63    0.63</time>
   <time name="diis">    3.16    3.17</time>
   <time name="orth">    0.03    0.03</time>
   <time name="total">    4.32    4.32</time>
   <energy>
    <i name="e_fr_energy">   -454.34336065 </i>
    <i name="e_wo_entrp">   -454.34325478 </i>
    <i name="e_0_energy">   -454.34330772 </i>
   </energy>
  </scstep>
  <scstep>
   <time name="diag">    0.63    0.63</time>
   <time name="diis">    3.21    3.22</time>
   <time name="orth">    0.04    0.04</time>
   <time name="total">    4.37    4.38</time>
   <energy>
    <i name="e_fr_energy">   -454.34339687 </i>
    <i name="e_wo_entrp">   -454.34328951 </i>
    <i name="e_0_energy">   -454.34334319 </i>
   </energy>
  </scstep>
  <scstep>
   <time name="diag">    0.63    0.63</time>
   <time name="diis">    2.24    2.24</time>
   <time name="orth">    0.03    0.03</time>
   <time name="total">    3.09    3.10</time>
   <energy>
    <i name="alphaZ">     82.54348252 </i>
    <i name="ewald">  34516.38248005 </i>
    <i name="hartreedc"> -41034.76487638 </i>
    <i name="XCdc">    721.38424296 </i>
    <i name="pawpsdc">  22777.32164562 </i>
    <i name="pawaedc"> -22813.65350084 </i>
    <i name="eentropy">     -0.00010818 </i>
    <i name="bandstr">  -2492.18115983 </i>
    <i name="atom">   7788.62438962 </i>
    <i name="e_fr_energy">   -454.34340446 </i>
    <i name="e_wo_entrp">   -454.34329629 </i>
    <i name="e_0_energy">   -454.34335038 </i>
   </energy>
  </scstep>
  <structure>
   <crystal>
    <varray name="basis" >
     <v>      12.30000019       0.00000000       0.00000000 </v>
     <v>       6.15000080      10.65211222       0.00000000 </v>
     <v>       0.00000000       0.00000000      20.00000000 </v>
    </varray>
    <i name="volume">   2620.41964732 </i>
    <varray name="rec_basis" >
     <v>       0.08130081      -0.04693905       0.00000000 </v>
     <v>       0.00000000       0.09387809       0.00000000 </v>
     <v>       0.00000000       0.00000000       0.05000000 </v>
    </varray>
   </crystal>
   <varray name="positions" >
    <v>       0.00000000       0.00000000       0.41799748 </v>
    <v>       0.20000000       0.00000000       0.41799748 </v>
    <v>       0.40000000       0.00000000       0.41799748 </v>
    <v>       0.60000000       0.00000000       0.41799748 </v>
    <v>       0.80000000       0.00000000       0.41799748 </v>
    <v>       0.00000000       0.20000000       0.41799748 </v>
    <v>       0.20000000       0.20000000       0.41799748 </v>
    <v>       0.40000000       0.20000000       0.41799748 </v>
    <v>       0.60000000       0.20000000       0.41799748 </v>
    <v>       0.80000000       0.20000000       0.41799748 </v>
    <v>       0.00000000       0.40000000       0.41799748 </v>
    <v>       0.20000000       0.40000000       0.41799748 </v>
    <v>       0.40000000       0.40000000       0.41799748 </v>
    <v>       0.60000000       0.40000000       0.41799748 </v>
    <v>       0.80000000       0.40000000       0.41799748 </v>
    <v>       0.00000000       0.60000000       0.41799748 </v>
    <v>       0.20000000       0.60000000       0.41799748 </v>
    <v>       0.40000000       0.60000000       0.41799748 </v>
    <v>       0.60000000       0.60000000       0.41799748 </v>
    <v>       0.80000000       0.60000000       0.41799748 </v>
    <v>       0.00000000       0.80000000       0.41799748 </v>
    <v>       0.20000000       0.80000000       0.41799748 </v>
    <v>       0.40000000       0.80000000       0.41799748 </v>
    <v>       0.60000000       0.80000000       0.41799748 </v>
    <v>       0.80000000       0.80000000       0.41799748 </v>
    <v>       0.06666667       0.06666660       0.41800609 </v>
    <v>       0.26666667       0.06666660       0.41800609 </v>
    <v>       0.46666667       0.06666660       0.41800609 </v>
    <v>       0.66666667       0.06666660       0.41800609 </v>
    <v>       0.86666667       0.06666660       0.41800609 </v>
    <v>       0.06666667       0.26666660       0.41800609 </v>
    <v>       0.26666667       0.26666660       0.41750609 </v>
    <v>       0.46666667       0.26666660       0.41800609 </v>
    <v>       0.66666667       0.26666660       0.41800609 </v>
    <v>       0.86666667       0.26666660       0.41800609 </v>
    <v>       0.06666667       0.46666660       0.41800609 </v>
    <v>       0.26666667       0.46666660       0.41800609 </v>
    <v>       0.46666667       0.46666660       0.41800609 </v>
    <v>       0.66666667       0.46666660       0.41800609 </v>
    <v>       0.86666667       0.46666660       0.41800609 </v>
    <v>       0.06666667       0.66666660       0.41800609 </v>
    <v>       0.26666667       0.66666660       0.41800609 </v>
    <v>       0.46666667       0.66666660       0.41800609 </v>
    <v>       0.66666667       0.66666660       0.41800609 </v>
    <v>       0.86666667       0.66666660       0.41800609 </v>
    <v>       0.06666667       0.86666660       0.41800609 </v>
    <v>       0.26666667       0.86666660       0.41800609 </v>
    <v>       0.46666667       0.86666660       0.41800609 </v>
    <v>       0.66666667       0.86666660       0.41800609 </v>
    <v>       0.86666667       0.86666660       0.41800609 </v>
    <v>       0.40000000       0.40000000       0.46800609 </v>
   </varray>
  </structure>
  <varray name="forces" >
   <v>      -0.04749931      -0.02742374       0.00890749 </v>
   <v>       0.04767017      -0.02769448       0.01389766 </v>
   <v>      -0.15837516       0.01373126      -0.02949990 </v>
   <v>      -0.00144148      -0.20716688      -0.02196314 </v>
   <v>       0.15960434       0.01417568      -0.02652159 </v>
   <v>      -0.00014903       0.05513082       0.01389766 </v>
   <v>       0.42878899       0.24756142      -0.06221800 </v>
   <v>       0.09765698      -0.20166058       0.10706730 </v>
   <v>      -0.09253716      -0.20550521       0.16976733 </v>
   <v>      -0.42877882       0.24771765      -0.00051009 </v>
   <v>      -0.06729597      -0.14402254      -0.02949990 </v>
   <v>      -0.12581469       0.18540372       0.10706730 </v>
   <v>       0.00340829       0.00196778     -48.16063120 </v>
   <v>       0.12902929       0.18587130       0.16503291 </v>
   <v>       0.06665716      -0.14483231      -0.02599541 </v>
   <v>      -0.18013252       0.10233509      -0.02196314 </v>
   <v>      -0.22424131       0.02261309       0.16976733 </v>
   <v>       0.22548392       0.01880698       0.16503291 </v>
   <v>       0.17975863       0.10378369      -0.02707798 </v>
   <v>      -0.00014163      -0.01291077       0.01798625 </v>
   <v>       0.09207868       0.13113357      -0.02652159 </v>
   <v>       0.00014033      -0.49519218      -0.00051009 </v>
   <v>      -0.09209987       0.13014295      -0.02599541 </v>
   <v>      -0.01125187       0.00633273       0.01798625 </v>
   <v>       0.01076076       0.00621273       0.01715146 </v>
   <v>      -0.00027759      -0.00016027      -0.00664139 </v>
   <v>       0.09702765      -0.21669038       0.01459069 </v>
   <v>       0.19391088       0.24909209       0.26055874 </v>
   <v>      -0.19401817       0.25173429       0.25622652 </v>
   <v>      -0.09730771      -0.21742665       0.01018115 </v>
   <v>      -0.13914554       0.19237361       0.01459069 </v>
   <v>      -0.44009699      -0.25409010      -0.21430514 </v>
   <v>      -0.00616570      -5.07745865      -4.34391544 </v>
   <v>       0.44109280      -0.25636966      -0.35515755 </v>
   <v>       0.13948066       0.19274279       0.01015800 </v>
   <v>       0.31267553       0.04338568       0.26055874 </v>
   <v>      -4.40029086       2.53338997      -4.34391544 </v>
   <v>       4.39739009       2.53883416      -4.34967565 </v>
   <v>      -0.31344499       0.04308976       0.25708291 </v>
   <v>       0.00029573       0.08207042      -0.02278368 </v>
   <v>       0.12099919      -0.29389182       0.25622652 </v>
   <v>      -0.00147621       0.51018241      -0.35515755 </v>
   <v>      -0.11940569      -0.29299620       0.25708291 </v>
   <v>      -0.08203572      -0.04736334      -0.02639291 </v>
   <v>       0.08185819      -0.04713618      -0.02595782 </v>
   <v>      -0.23695085       0.02444239       0.01018115 </v>
   <v>       0.23666048       0.02442238       0.01015800 </v>
   <v>       0.07122293      -0.04077910      -0.02278368 </v>
   <v>       0.00010797       0.09445936      -0.02595782 </v>
   <v>      -0.07072680      -0.04083413      -0.02184891 </v>
   <v>      -0.00265804      -0.00153462      59.98224257 </v>
  </varray>
  <varray name="stress" >
   <v>       9.50230558      -0.00146000       0.00102775 </v>
   <v>      -0.00146000       9.50399144       0.00059337 </v>
   <v>       0.00102776       0.00059338      31.90788324 </v>
  </varray>
  <energy>
   <i name="e_fr_energy">   -454.34340446 </i>
   <i name="e_wo_entrp">   -454.34335038 </i>
   <i name="e_0_energy">     -0.00010818 </i>
  </energy>
  <time name="totalsc">   33.79   33.85</time>
  <eigenvalues>
   <array>
    <dimension dim="1">band</dimension>
    <dimension dim="2">kpoint</dimension>
    <dimension dim="3">spin</dimension>
    <field>eigene</field>
    <field>occ</field>
    <set>
     <set comment="spin 1">
      <set comment="kpoint 1">
       <r>  -31.7391    1.0000 </r>
       <r>  -22.2709    1.0000 </r>
       <r>  -21.5027    1.0000 </r>
       <r>  -21.5026    1.0000 </r>
       <r>  -21.3943    1.0000 </r>
       <r>  -21.3942    1.0000 </r>
       <r>  -21.3939    1.0000 </r>
       <r>  -20.8740    1.0000 </r>
       <r>  -19.8762    1.0000 </r>
       <r>  -19.8762    1.0000 </r>
       <r>  -19.5490    1.0000 </r>
       <r>  -19.5489    1.0000 </r>
       <r>  -19.5387    1.0000 </r>
       <r>  -19.1912    1.0000 </r>
       <r>  -18.9008    1.0000 </r>
       <r>  -18.9008    1.0000 </r>
       <r>  -18.6434    1.0000 </r>
       <r>  -18.6428    1.0000 </r>
       <r>  -18.6428    1.0000 </r>
       <r>  -17.8839    1.0000 </r>
       <r>  -17.0213    1.0000 </r>
       <r>  -17.0210    1.0000 </r>
       <r>  -16.4775    1.0000 </r>
       <r>  -16.4580    1.0000 </r>
       <r>  -16.4580    1.0000 </r>
       <r>  -16.0491    1.0000 </r>
       <r>  -15.9964    1.0000 </r>
       <r>  -15.9963    1.0000 </r>
       <r>  -15.4972    1.0000 </r>
       <r>  -15.4972    1.0000 </r>
       <r>  -15.4927    1.0000 </r>
       <r>  -15.0893    1.0000 </r>
       <r>  -14.6292    1.0000 </r>
       <r>  -14.6291    1.0000 </r>
       <r>  -14.1495    1.0000 </r>
       <r>  -14.1495    1.0000 </r>
       <r>  -14.1430    1.0000 </r>
       <r>  -13.9641    1.0000 </r>
       <r>  -12.9911    1.0000 </r>
       <r>  -12.9904    1.0000 </r>
       <r>  -12.0309    1.0000 </r>
       <r>  -11.7646    1.0000 </r>
       <r>  -11.7646    1.0000 </r>
       <r>  -11.7613    1.0000 </r>
       <r>  -11.6900    1.0000 </r>
       <r>  -11.6899    1.0000 </r>
       <r>  -11.6515    1.0000 </r>
       <r>  -11.6496    1.0000 </r>
       <r>  -11.6495    1.0000 </r>
       <r>  -11.6485    1.0000 </r>
       <r>  -10.8017    1.0000 </r>
       <r>  -10.8016    1.0000 </r>
       <r>  -10.4283    1.0000 </r>
       <r>  -10.3344    1.0000 </r>
       <r>  -10.2885    1.0000 </r>
       <r>  -10.2885    1.0000 </r>
       <r>  -10.2703    1.0000 </r>
       <r>  -10.0768    1.0000 </r>
       <r>   -9.6861    1.0000 </r>
       <r>   -9.6841    1.0000 </r>
       <r>   -9.3264    1.0000 </r>
       <r>   -9.3254    1.0000 </r>
       <r>   -9.3004    1.0000 </r>
       <r>   -9.2794    1.0000 </r>
       <r>   -9.2791    1.0000 </r>
       <r>   -9.0456    1.0000 </r>
       <r>   -9.0045    1.0000 </r>
       <r>   -9.0045    1.0000 </r>
       <r>   -8.9484    1.0000 </r>
       <r>   -8.9410    1.0000 </r>
       <r>   -8.9402    1.0000 </r>
       <r>   -8.9400    1.0000 </r>
       <r>   -8.9187    1.0000 </r>
       <r>   -8.9185    1.0000 </r>
       <r>   -8.8924    1.0000 </r>
       <r>   -8.4368    1.0000 </r>
       <r>   -7.8021    1.0000 </r>
       <r>   -7.7994    1.0000 </r>
       <r>   -7.3275    1.0000 </r>
       <r>   -7.3245    1.0000 </r>
       <r>   -7.3098    1.0000 </r>
       <r>   -7.3008    1.0000 </r>
       <r>   -7.2969    1.0000 </r>
       <r>   -7.2969    1.0000 </r>
       <r>   -7.1608    1.0000 </r>
       <r>   -7.1607    1.0000 </r>
       <r>   -7.1548    1.0000 </r>
       <r>   -6.7515    1.0000 </r>
       <r>   -6.5076    1.0000 </r>
       <r>   -6.5074    1.0000 </r>
       <r>   -6.2669    1.0000 </r>
       <r>   -6.2464    1.0000 </r>
       <r>   -6.2463    1.0000 </r>
       <r>   -5.9229    1.0000 </r>
       <r>   -5.9208    1.0000 </r>
       <r>   -5.1958    1.0000 </r>
       <r>   -4.7641    1.0000 </r>
       <r>   -4.7637    1.0000 </r>
       <r>   -4.2704    1.0000 </r>
       <r>   -4.2663    1.0000 </r>
       <r>   -4.2663    1.0000 </r>
       <r>   -3.2163    1.0000 </r>
       <r>   -3.2142    1.0000 </r>
       <r>   -2.9155    0.0020 </r>
       <r>   -1.4611    0.0000 </r>
       <r>   -1.4570    0.0000 </r>
       <r>   -1.4569    0.0000 </r>
       <r>   -0.9909    0.0000 </r>
       <r>   -0.9906    0.0000 </r>
       <r>   -0.5423    0.0000 </r>
       <r>    0.4167    0.0000 </r>
       <r>    0.4217    0.0000 </r>
       <r>    0.4218    0.0000 </r>
       <r>    0.5621    0.0000 </r>
       <r>    0.8438    0.0000 </r>
       <r>    0.8449    0.0000 </r>
       <r>    1.2924    0.0000 </r>
       <r>    1.3400    0.0000 </r>
       <r>    1.6789    0.0000 </r>
       <r>    1.8022    0.0000 </r>
       <r>    1.8022    0.0000 </r>
       <r>    1.8024    0.0000 </r>
       <r>    1.8264    0.0000 </r>
       <r>    1.8269    0.0000 </r>
       <r>    2.0309    0.0000 </r>
       <r>    2.1769    0.0000 </r>
       <r>    2.1796    0.0000 </r>
       <r>    2.1798    0.0000 </r>
       <r>    2.3474    0.0000 </r>
       <r>    2.3484    0.0000 </r>
       <r>    2.6175    0.0000 </r>
       <r>    2.6429    0.0000 </r>
      </set>
      <set comment="kpoint 2">
       <r>  -31.7392    1.0000 </r>
       <r>  -22.1888    1.0000 </r>
       <r>  -21.8691    1.0000 </r>
       <r>  -21.6610    1.0000 </r>
       <r>  -21.4543    1.0000 </r>
       <r>  -21.0345    1.0000 </r>
       <r>  -20.8969    1.0000 </r>
       <r>  -20.7272    1.0000 </r>
       <r>  -20.4198    1.0000 </r>
       <r>  -20.1621    1.0000 </r>
       <r>  -19.7867    1.0000 </r>
       <r>  -19.6987    1.0000 </r>
       <r>  -19.3262    1.0000 </r>
       <r>  -19.2428    1.0000 </r>
       <r>  -19.0614    1.0000 </r>
       <r>  -18.5925    1.0000 </r>
       <r>  -18.4577    1.0000 </r>
       <r>  -18.1211    1.0000 </r>
       <r>  -18.0627    1.0000 </r>
       <r>  -17.5907    1.0000 </r>
       <r>  -17.4975    1.0000 </r>
       <r>  -17.3007    1.0000 </r>
       <r>  -17.2765    1.0000 </r>
       <r>  -16.8512    1.0000 </r>
       <r>  -16.6581    1.0000 </r>
       <r>  -16.1758    1.0000 </r>
       <r>  -15.9776    1.0000 </r>
       <r>  -15.8475    1.0000 </r>
       <r>  -15.2981    1.0000 </r>
       <r>  -15.1696    1.0000 </r>
       <r>  -15.1340    1.0000 </r>
       <r>  -14.8845    1.0000 </r>
       <r>  -14.7816    1.0000 </r>
       <r>  -14.4777    1.0000 </r>
       <r>  -14.4558    1.0000 </r>
       <r>  -13.7669    1.0000 </r>
       <r>  -13.7598    1.0000 </r>
       <r>  -13.1958    1.0000 </r>
       <r>  -13.0892    1.0000 </r>
       <r>  -12.9338    1.0000 </r>
       <r>  -12.9042    1.0000 </r>
       <r>  -12.5851    1.0000 </r>
       <r>  -12.5497    1.0000 </r>
       <r>  -12.3899    1.0000 </r>
       <r>  -12.0219    1.0000 </r>
       <r>  -11.6628    1.0000 </r>
       <r>  -11.4472    1.0000 </r>
       <r>  -11.2960    1.0000 </r>
       <r>  -11.1215    1.0000 </r>
       <r>  -10.9140    1.0000 </r>
       <r>  -10.8499    1.0000 </r>
       <r>  -10.5839    1.0000 </r>
       <r>  -10.5323    1.0000 </r>
       <r>  -10.2849    1.0000 </r>
       <r>  -10.2371    1.0000 </r>
       <r>  -10.1610    1.0000 </r>
       <r>  -10.0486    1.0000 </r>
       <r>   -9.8534    1.0000 </r>
       <r>   -9.8199    1.0000 </r>
       <r>   -9.6538    1.0000 </r>
       <r>   -9.6067    1.0000 </r>
       <r>   -9.5602    1.0000 </r>
       <r>   -9.5270    1.0000 </r>
       <r>   -9.3709    1.0000 </r>
       <r>   -9.3401    1.0000 </r>
       <r>   -9.2597    1.0000 </r>
       <r>   -9.1754    1.0000 </r>
       <r>   -9.0994    1.0000 </r>
       <r>   -9.0821    1.0000 </r>
       <r>   -8.8641    1.0000 </r>
       <r>   -8.7134    1.0000 </r>
       <r>   -8.6644    1.0000 </r>
       <r>   -8.5054    1.0000 </r>
       <r>   -8.4020    1.0000 </r>
       <r>   -8.2869    1.0000 </r>
       <r>   -8.1327    1.0000 </r>
       <r>   -8.0942    1.0000 </r>
       <r>   -8.0661    1.0000 </r>
       <r>   -7.9712    1.0000 </r>
       <r>   -7.8075    1.0000 </r>
       <r>   -7.6203    1.0000 </r>
       <r>   -7.3595    1.0000 </r>
       <r>   -7.3354    1.0000 </r>
       <r>   -7.2664    1.0000 </r>
       <r>   -7.1962    1.0000 </r>
       <r>   -6.9201    1.0000 </r>
       <r>   -6.8722    1.0000 </r>
       <r>   -6.6944    1.0000 </r>
       <r>   -6.5905    1.0000 </r>
       <r>   -6.3483    1.0000 </r>
       <r>   -6.1851    1.0000 </r>
       <r>   -6.0733    1.0000 </r>
       <r>   -5.9215    1.0000 </r>
       <r>   -5.7385    1.0000 </r>
       <r>   -5.6401    1.0000 </r>
       <r>   -5.3224    1.0000 </r>
       <r>   -5.1148    1.0000 </r>
       <r>   -4.9700    1.0000 </r>
       <r>   -4.9225    1.0000 </r>
       <r>   -4.2701    1.0000 </r>
       <r>   -4.1693    1.0000 </r>
       <r>   -3.3377    1.0000 </r>
       <r>   -3.1367    0.9996 </r>
       <r>   -2.8031    0.0000 </r>
       <r>   -1.5911    0.0000 </r>
       <r>   -1.4234    0.0000 </r>
       <r>   -0.8399    0.0000 </r>
       <r>   -0.8192    0.0000 </r>
       <r>   -0.7061    0.0000 </r>
       <r>   -0.6674    0.0000 </r>
       <r>   -0.1279    0.0000 </r>
       <r>   -0.0057    0.0000 </r>
       <r>    0.2930    0.0000 </r>
       <r>    0.7041    0.0000 </r>
       <r>    0.7277    0.0000 </r>
       <r>    1.1008    0.0000 </r>
       <r>    1.1746    0.0000 </r>
       <r>    1.3647    0.0000 </r>
       <r>    1.4630    0.0000 </r>
       <r>    1.5371    0.0000 </r>
       <r>    1.5702    0.0000 </r>
       <r>    1.6376    0.0000 </r>
       <r>    1.8281    0.0000 </r>
       <r>    1.9124    0.0000 </r>
       <r>    2.0389    0.0000 </r>
       <r>    2.2223    0.0000 </r>
       <r>    2.2693    0.0000 </r>
       <r>    2.3288    0.0000 </r>
       <r>    2.3401    0.0000 </r>
       <r>    2.3962    0.0000 </r>
       <r>    2.4576    0.0000 </r>
       <r>    2.7966    0.0000 </r>
      </set>
      <set comment="kpoint 3">
       <r>  -31.7392    1.0000 </r>
       <r>  -22.1888    1.0000 </r>
       <r>  -21.8691    1.0000 </r>
       <r>  -21.6610    1.0000 </r>
       <r>  -21.4544    1.0000 </r>
       <r>  -21.0344    1.0000 </r>
       <r>  -20.8969    1.0000 </r>
       <r>  -20.7272    1.0000 </r>
       <r>  -20.4198    1.0000 </r>
       <r>  -20.1621    1.0000 </r>
       <r>  -19.7867    1.0000 </r>
       <r>  -19.6988    1.0000 </r>
       <r>  -19.3262    1.0000 </r>
       <r>  -19.2428    1.0000 </r>
       <r>  -19.0614    1.0000 </r>
       <r>  -18.5925    1.0000 </r>
       <r>  -18.4577    1.0000 </r>
       <r>  -18.1211    1.0000 </r>
       <r>  -18.0628    1.0000 </r>
       <r>  -17.5907    1.0000 </r>
       <r>  -17.4975    1.0000 </r>
       <r>  -17.3006    1.0000 </r>
       <r>  -17.2764    1.0000 </r>
       <r>  -16.8509    1.0000 </r>
       <r>  -16.6581    1.0000 </r>
       <r>  -16.1761    1.0000 </r>
       <r>  -15.9777    1.0000 </r>
       <r>  -15.8474    1.0000 </r>
       <r>  -15.2982    1.0000 </r>
       <r>  -15.1694    1.0000 </r>
       <r>  -15.1339    1.0000 </r>
       <r>  -14.8846    1.0000 </r>
       <r>  -14.7815    1.0000 </r>
       <r>  -14.4779    1.0000 </r>
       <r>  -14.4558    1.0000 </r>
       <r>  -13.7668    1.0000 </r>
       <r>  -13.7597    1.0000 </r>
       <r>  -13.1957    1.0000 </r>
       <r>  -13.0891    1.0000 </r>
       <r>  -12.9338    1.0000 </r>
       <r>  -12.9043    1.0000 </r>
       <r>  -12.5850    1.0000 </r>
       <r>  -12.5498    1.0000 </r>
       <r>  -12.3896    1.0000 </r>
       <r>  -12.0214    1.0000 </r>
       <r>  -11.6630    1.0000 </r>
       <r>  -11.4474    1.0000 </r>
       <r>  -11.2960    1.0000 </r>
       <r>  -11.1214    1.0000 </r>
       <r>  -10.9141    1.0000 </r>
       <r>  -10.8499    1.0000 </r>
       <r>  -10.5841    1.0000 </r>
       <r>  -10.5322    1.0000 </r>
       <r>  -10.2848    1.0000 </r>
       <r>  -10.2371    1.0000 </r>
       <r>  -10.1614    1.0000 </r>
       <r>  -10.0487    1.0000 </r>
       <r>   -9.8536    1.0000 </r>
       <r>   -9.8199    1.0000 </r>
       <r>   -9.6535    1.0000 </r>
       <r>   -9.6060    1.0000 </r>
       <r>   -9.5604    1.0000 </r>
       <r>   -9.5281    1.0000 </r>
       <r>   -9.3706    1.0000 </r>
       <r>   -9.3400    1.0000 </r>
       <r>   -9.2598    1.0000 </r>
       <r>   -9.1754    1.0000 </r>
       <r>   -9.0994    1.0000 </r>
       <r>   -9.0816    1.0000 </r>
       <r>   -8.8654    1.0000 </r>
       <r>   -8.7129    1.0000 </r>
       <r>   -8.6646    1.0000 </r>
       <r>   -8.5029    1.0000 </r>
       <r>   -8.4020    1.0000 </r>
       <r>   -8.2870    1.0000 </r>
       <r>   -8.1317    1.0000 </r>
       <r>   -8.0946    1.0000 </r>
       <r>   -8.0671    1.0000 </r>
       <r>   -7.9712    1.0000 </r>
       <r>   -7.8084    1.0000 </r>
       <r>   -7.6186    1.0000 </r>
       <r>   -7.3607    1.0000 </r>
       <r>   -7.3357    1.0000 </r>
       <r>   -7.2671    1.0000 </r>
       <r>   -7.1975    1.0000 </r>
       <r>   -6.9200    1.0000 </r>
       <r>   -6.8735    1.0000 </r>
       <r>   -6.6903    1.0000 </r>
       <r>   -6.5906    1.0000 </r>
       <r>   -6.3493    1.0000 </r>
       <r>   -6.1849    1.0000 </r>
       <r>   -6.0732    1.0000 </r>
       <r>   -5.9221    1.0000 </r>
       <r>   -5.7384    1.0000 </r>
       <r>   -5.6401    1.0000 </r>
       <r>   -5.3225    1.0000 </r>
       <r>   -5.1151    1.0000 </r>
       <r>   -4.9700    1.0000 </r>
       <r>   -4.9225    1.0000 </r>
       <r>   -4.2699    1.0000 </r>
       <r>   -4.1685    1.0000 </r>
       <r>   -3.3361    1.0000 </r>
       <r>   -3.1387    0.9997 </r>
       <r>   -2.8037    0.0000 </r>
       <r>   -1.5910    0.0000 </r>
       <r>   -1.4227    0.0000 </r>
       <r>   -0.8400    0.0000 </r>
       <r>   -0.8189    0.0000 </r>
       <r>   -0.7057    0.0000 </r>
       <r>   -0.6678    0.0000 </r>
       <r>   -0.1286    0.0000 </r>
       <r>   -0.0054    0.0000 </r>
       <r>    0.2930    0.0000 </r>
       <r>    0.7046    0.0000 </r>
       <r>    0.7272    0.0000 </r>
       <r>    1.0980    0.0000 </r>
       <r>    1.1772    0.0000 </r>
       <r>    1.3669    0.0000 </r>
       <r>    1.4648    0.0000 </r>
       <r>    1.5626    0.0000 </r>
       <r>    1.5756    0.0000 </r>
       <r>    1.7519    0.0000 </r>
       <r>    1.8293    0.0000 </r>
       <r>    2.1792    0.0000 </r>
       <r>    2.3359    0.0000 </r>
       <r>    2.3969    0.0000 </r>
       <r>    2.6141    0.0000 </r>
       <r>    2.7891    0.0000 </r>
       <r>    2.8451    0.0000 </r>
       <r>    3.2040    0.0000 </r>
       <r>    3.5949    0.0000 </r>
       <r>    4.1774    0.0000 </r>
      </set>
      <set comment="kpoint 4">
       <r>  -31.7392    1.0000 </r>
       <r>  -22.0803    1.0000 </r>
       <r>  -22.0075    1.0000 </r>
       <r>  -21.8014    1.0000 </r>
       <r>  -21.1717    1.0000 </r>
       <r>  -21.1503    1.0000 </r>
       <r>  -20.8673    1.0000 </r>
       <r>  -20.4128    1.0000 </r>
       <r>  -20.3385    1.0000 </r>
       <r>  -20.1719    1.0000 </r>
       <r>  -20.1503    1.0000 </r>
       <r>  -20.1429    1.0000 </r>
       <r>  -19.5666    1.0000 </r>
       <r>  -18.8259    1.0000 </r>
       <r>  -18.6742    1.0000 </r>
       <r>  -18.3723    1.0000 </r>
       <r>  -18.3488    1.0000 </r>
       <r>  -18.3363    1.0000 </r>
       <r>  -17.9298    1.0000 </r>
       <r>  -17.8012    1.0000 </r>
       <r>  -17.6013    1.0000 </r>
       <r>  -17.2614    1.0000 </r>
       <r>  -17.1530    1.0000 </r>
       <r>  -17.1205    1.0000 </r>
       <r>  -16.5426    1.0000 </r>
       <r>  -16.4374    1.0000 </r>
       <r>  -16.2841    1.0000 </r>
       <r>  -15.8083    1.0000 </r>
       <r>  -15.6287    1.0000 </r>
       <r>  -15.1751    1.0000 </r>
       <r>  -14.9693    1.0000 </r>
       <r>  -14.6524    1.0000 </r>
       <r>  -13.9599    1.0000 </r>
       <r>  -13.9392    1.0000 </r>
       <r>  -13.9244    1.0000 </r>
       <r>  -13.8733    1.0000 </r>
       <r>  -13.8636    1.0000 </r>
       <r>  -13.7919    1.0000 </r>
       <r>  -13.6741    1.0000 </r>
       <r>  -13.4947    1.0000 </r>
       <r>  -13.0370    1.0000 </r>
       <r>  -12.4745    1.0000 </r>
       <r>  -12.2536    1.0000 </r>
       <r>  -12.0713    1.0000 </r>
       <r>  -11.8233    1.0000 </r>
       <r>  -11.7730    1.0000 </r>
       <r>  -11.5630    1.0000 </r>
       <r>  -11.5454    1.0000 </r>
       <r>  -11.5224    1.0000 </r>
       <r>  -10.9284    1.0000 </r>
       <r>  -10.8175    1.0000 </r>
       <r>  -10.5298    1.0000 </r>
       <r>  -10.2059    1.0000 </r>
       <r>  -10.2036    1.0000 </r>
       <r>  -10.1939    1.0000 </r>
       <r>  -10.0948    1.0000 </r>
       <r>  -10.0521    1.0000 </r>
       <r>  -10.0221    1.0000 </r>
       <r>   -9.9028    1.0000 </r>
       <r>   -9.7515    1.0000 </r>
       <r>   -9.7481    1.0000 </r>
       <r>   -9.5639    1.0000 </r>
       <r>   -9.4411    1.0000 </r>
       <r>   -9.4071    1.0000 </r>
       <r>   -9.1984    1.0000 </r>
       <r>   -9.0467    1.0000 </r>
       <r>   -9.0317    1.0000 </r>
       <r>   -8.9016    1.0000 </r>
       <r>   -8.8855    1.0000 </r>
       <r>   -8.6879    1.0000 </r>
       <r>   -8.6370    1.0000 </r>
       <r>   -8.6351    1.0000 </r>
       <r>   -8.6235    1.0000 </r>
       <r>   -8.5823    1.0000 </r>
       <r>   -8.3740    1.0000 </r>
       <r>   -8.2517    1.0000 </r>
       <r>   -8.1646    1.0000 </r>
       <r>   -8.0344    1.0000 </r>
       <r>   -7.9836    1.0000 </r>
       <r>   -7.8796    1.0000 </r>
       <r>   -7.8580    1.0000 </r>
       <r>   -7.8549    1.0000 </r>
       <r>   -7.2238    1.0000 </r>
       <r>   -7.1844    1.0000 </r>
       <r>   -7.1286    1.0000 </r>
       <r>   -6.8845    1.0000 </r>
       <r>   -6.7219    1.0000 </r>
       <r>   -6.6127    1.0000 </r>
       <r>   -6.4601    1.0000 </r>
       <r>   -6.2664    1.0000 </r>
       <r>   -6.1020    1.0000 </r>
       <r>   -5.9164    1.0000 </r>
       <r>   -5.9111    1.0000 </r>
       <r>   -5.8976    1.0000 </r>
       <r>   -5.4519    1.0000 </r>
       <r>   -5.4253    1.0000 </r>
       <r>   -5.1217    1.0000 </r>
       <r>   -5.0141    1.0000 </r>
       <r>   -4.9803    1.0000 </r>
       <r>   -4.9577    1.0000 </r>
       <r>   -3.7337    1.0000 </r>
       <r>   -3.4579    1.0000 </r>
       <r>   -3.2809    1.0000 </r>
       <r>   -2.3870    0.0000 </r>
       <r>   -2.2234    0.0000 </r>
       <r>   -0.9285    0.0000 </r>
       <r>   -0.8821    0.0000 </r>
       <r>   -0.8678    0.0000 </r>
       <r>   -0.5385    0.0000 </r>
       <r>   -0.2629    0.0000 </r>
       <r>   -0.2108    0.0000 </r>
       <r>    0.2520    0.0000 </r>
       <r>    0.2581    0.0000 </r>
       <r>    0.2605    0.0000 </r>
       <r>    0.5991    0.0000 </r>
       <r>    0.7946    0.0000 </r>
       <r>    0.9471    0.0000 </r>
       <r>    0.9737    0.0000 </r>
       <r>    1.0609    0.0000 </r>
       <r>    1.7354    0.0000 </r>
       <r>    1.7451    0.0000 </r>
       <r>    1.7674    0.0000 </r>
       <r>    1.8269    0.0000 </r>
       <r>    2.1167    0.0000 </r>
       <r>    2.1207    0.0000 </r>
       <r>    2.1247    0.0000 </r>
       <r>    2.2460    0.0000 </r>
       <r>    2.2478    0.0000 </r>
       <r>    2.3615    0.0000 </r>
       <r>    2.9995    0.0000 </r>
       <r>    3.0121    0.0000 </r>
       <r>    3.0361    0.0000 </r>
      </set>
     </set>
    </set>
   </array>
  </eigenvalues>
  <separator name="orbital magnetization" >
   <v name="MAGDIPOLOUT">      0.00000000      0.00000000      0.00000000</v>
  </separator>
  <dos>
   <i name="efermi">     -3.01713366 </i>
   <total>
    <array>
     <dimension dim="1">gridpoints</dimension>
     <dimension dim="2">spin</dimension>
     <field>energy</field>
     <field>total</field>
     <field>integrated</field>
     <set>
      <set comment="spin 1">
       <r>   -33.5351     0.0000     0.0000 </r>
       <r>   -33.4034     0.0000     0.0000 </r>
       <r>   -33.2717     0.0000     0.0000 </r>
       <r>   -33.1400     0.0000     0.0000 </r>
       <r>   -33.0083     0.0000     0.0000 </r>
       <r>   -32.8766     0.0000     0.0000 </r>
       <r>   -32.7449     0.0000     0.0000 </r>
       <r>   -32.6132     0.0000     0.0000 </r>
       <r>   -32.4815     0.0000     0.0000 </r>
       <r>   -32.3498     0.0000     0.0000 </r>
       <r>   -32.2181     0.0000     0.0000 </r>
       <r>   -32.0864     0.0000     0.0000 </r>
       <r>   -31.9547     0.0000     0.0000 </r>
       <r>   -31.8230     0.1345     0.0177 </r>
       <r>   -31.6913    13.7158     1.8240 </r>
       <r>   -31.5596     1.3364     2.0000 </r>
       <r>   -31.4279     0.0000     2.0000 </r>
       <r>   -31.2962     0.0000     2.0000 </r>
       <r>   -31.1646     0.0000     2.0000 </r>
       <r>   -31.0329     0.0000     2.0000 </r>
       <r>   -30.9012     0.0000     2.0000 </r>
       <r>   -30.7695     0.0000     2.0000 </r>
       <r>   -30.6378     0.0000     2.0000 </r>
       <r>   -30.5061     0.0000     2.0000 </r>
       <r>   -30.3744     0.0000     2.0000 </r>
       <r>   -30.2427     0.0000     2.0000 </r>
       <r>   -30.1110     0.0000     2.0000 </r>
       <r>   -29.9793     0.0000     2.0000 </r>
       <r>   -29.8476     0.0000     2.0000 </r>
       <r>   -29.7159     0.0000     2.0000 </r>
       <r>   -29.5842     0.0000     2.0000 </r>
       <r>   -29.4525     0.0000     2.0000 </r>
       <r>   -29.3208     0.0000     2.0000 </r>
       <r>   -29.1891     0.0000     2.0000 </r>
       <r>   -29.0574     0.0000     2.0000 </r>
       <r>   -28.9258     0.0000     2.0000 </r>
       <r>   -28.7941     0.0000     2.0000 </r>
       <r>   -28.6624     0.0000     2.0000 </r>
       <r>   -28.5307     0.0000     2.0000 </r>
       <r>   -28.3990     0.0000     2.0000 </r>
       <r>   -28.2673     0.0000     2.0000 </r>
       <r>   -28.1356     0.0000     2.0000 </r>
       <r>   -28.0039     0.0000     2.0000 </r>
       <r>   -27.8722     0.0000     2.0000 </r>
       <r>   -27.7405     0.0000     2.0000 </r>
       <r>   -27.6088     0.0000     2.0000 </r>
       <r>   -27.4771     0.0000     2.0000 </r>
       <r>   -27.3454     0.0000     2.0000 </r>
       <r>   -27.2137     0.0000     2.0000 </r>
       <r>   -27.0820     0.0000     2.0000 </r>
       <r>   -26.9503     0.0000     2.0000 </r>
       <r>   -26.8186     0.0000     2.0000 </r>
       <r>   -26.6869     0.0000     2.0000 </r>
       <r>   -26.5553     0.0000     2.0000 </r>
       <r>   -26.4236     0.0000     2.0000 </r>
       <r>   -26.2919     0.0000     2.0000 </r>
       <r>   -26.1602     0.0000     2.0000 </r>
       <r>   -26.0285     0.0000     2.0000 </r>
       <r>   -25.8968     0.0000     2.0000 </r>
       <r>   -25.7651     0.0000     2.0000 </r>
       <r>   -25.6334     0.0000     2.0000 </r>
       <r>   -25.5017     0.0000     2.0000 </r>
       <r>   -25.3700     0.0000     2.0000 </r>
       <r>   -25.2383     0.0000     2.0000 </r>
       <r>   -25.1066     0.0000     2.0000 </r>
       <r>   -24.9749     0.0000     2.0000 </r>
       <r>   -24.8432     0.0000     2.0000 </r>
       <r>   -24.7115     0.0000     2.0000 </r>
       <r>   -24.5798     0.0000     2.0000 </r>
       <r>   -24.4481     0.0000     2.0000 </r>
       <r>   -24.3165     0.0000     2.0000 </r>
       <r>   -24.1848     0.0000     2.0000 </r>
       <r>   -24.0531     0.0000     2.0000 </r>
       <r>   -23.9214     0.0000     2.0000 </r>
       <r>   -23.7897     0.0000     2.0000 </r>
       <r>   -23.6580     0.0000     2.0000 </r>
       <r>   -23.5263     0.0000     2.0000 </r>
       <r>   -23.3946     0.0000     2.0000 </r>
       <r>   -23.2629     0.0000     2.0000 </r>
       <r>   -23.1312     0.0000     2.0000 </r>
       <r>   -22.9995     0.0000     2.0000 </r>
       <r>   -22.8678     0.0000     2.0000 </r>
       <r>   -22.7361     0.0000     2.0000 </r>
       <r>   -22.6044     0.0000     2.0000 </r>
       <r>   -22.4727     0.0000     2.0000 </r>
       <r>   -22.3410     0.0400     2.0053 </r>
       <r>   -22.2093     4.4239     2.5879 </r>
       <r>   -22.0777     9.2081     3.8005 </r>
       <r>   -21.9460     4.9016     4.4460 </r>
       <r>   -21.8143    10.7093     5.8564 </r>
       <r>   -21.6826     5.5179     6.5831 </r>
       <r>   -21.5509     7.6980     7.5968 </r>
       <r>   -21.4192    12.7476     9.2756 </r>
       <r>   -21.2875     5.4959     9.9994 </r>
       <r>   -21.1558     3.7596    10.4945 </r>
       <r>   -21.0241     9.2228    11.7091 </r>
       <r>   -20.8924    10.7886    13.1299 </r>
       <r>   -20.7607    10.0265    14.4503 </r>
       <r>   -20.6290     8.3645    15.5519 </r>
       <r>   -20.4973     0.1999    15.5782 </r>
       <r>   -20.3656    13.1337    17.3079 </r>
       <r>   -20.2339     3.9569    17.8290 </r>
       <r>   -20.1022    18.6021    20.2788 </r>
       <r>   -19.9705     1.2710    20.4461 </r>
       <r>   -19.8388     3.5814    20.9178 </r>
       <r>   -19.7072    13.8907    22.7471 </r>
       <r>   -19.5755     8.5080    23.8676 </r>
       <r>   -19.4438     6.0603    24.6657 </r>
       <r>   -19.3121     6.8955    25.5738 </r>
       <r>   -19.1804    14.0188    27.4200 </r>
       <r>   -19.0487     7.5118    28.4092 </r>
       <r>   -18.9170     4.7513    29.0350 </r>
       <r>   -18.7853     5.2194    29.7223 </r>
       <r>   -18.6536     5.2110    30.4086 </r>
       <r>   -18.5219    13.8898    32.2378 </r>
       <r>   -18.3902    11.3766    33.7360 </r>
       <r>   -18.2585     8.6874    34.8801 </r>
       <r>   -18.1268     4.8350    35.5168 </r>
       <r>   -17.9951    15.3064    37.5326 </r>
       <r>   -17.8634     4.7921    38.1637 </r>
       <r>   -17.7317     3.7365    38.6558 </r>
       <r>   -17.6000     5.8422    39.4252 </r>
       <r>   -17.4684    15.7893    41.5045 </r>
       <r>   -17.3367     4.1408    42.0499 </r>
       <r>   -17.2050    21.3862    44.8663 </r>
       <r>   -17.0733     6.8108    45.7632 </r>
       <r>   -16.9416     3.4972    46.2238 </r>
       <r>   -16.8099     8.8788    47.3931 </r>
       <r>   -16.6782     4.1223    47.9360 </r>
       <r>   -16.5465     8.8339    49.0994 </r>
       <r>   -16.4148     8.8942    50.2707 </r>
       <r>   -16.2831     3.0554    50.6730 </r>
       <r>   -16.1514     9.2922    51.8968 </r>
       <r>   -16.0197     5.8573    52.6681 </r>
       <r>   -15.8880    13.0520    54.3870 </r>
       <r>   -15.7563    11.9598    55.9621 </r>
       <r>   -15.6246     2.1316    56.2428 </r>
       <r>   -15.4929     4.2187    56.7983 </r>
       <r>   -15.3612     2.7503    57.1605 </r>
       <r>   -15.2295    10.1814    58.5014 </r>
       <r>   -15.0979    22.0586    61.4064 </r>
       <r>   -14.9662     4.7312    62.0294 </r>
       <r>   -14.8345    11.4770    63.5409 </r>
       <r>   -14.7028    10.4282    64.9142 </r>
       <r>   -14.5711     6.3993    65.7570 </r>
       <r>   -14.4394    15.7461    67.8307 </r>
       <r>   -14.3077     4.6606    68.4444 </r>
       <r>   -14.1760     1.0612    68.5842 </r>
       <r>   -14.0443     4.0463    69.1170 </r>
       <r>   -13.9126    10.0608    70.4420 </r>
       <r>   -13.7809    16.7908    72.6533 </r>
       <r>   -13.6492    17.8376    75.0024 </r>
       <r>   -13.5175     1.6999    75.2262 </r>
       <r>   -13.3858     2.4972    75.5551 </r>
       <r>   -13.2541     0.5026    75.6213 </r>
       <r>   -13.1224    11.2124    77.0979 </r>
       <r>   -12.9907    13.8663    78.9240 </r>
       <r>   -12.8591    20.4747    81.6204 </r>
       <r>   -12.7274     1.1953    81.7778 </r>
       <r>   -12.5957     4.8501    82.4165 </r>
       <r>   -12.4640    17.5820    84.7320 </r>
       <r>   -12.3323    10.8353    86.1589 </r>
       <r>   -12.2006     3.6308    86.6371 </r>
       <r>   -12.0689     3.1652    87.0539 </r>
       <r>   -11.9372    12.1561    88.6548 </r>
       <r>   -11.8055     3.6297    89.1328 </r>
       <r>   -11.6738    16.0282    91.2437 </r>
       <r>   -11.5421    17.7475    93.5809 </r>
       <r>   -11.4104    13.4899    95.3574 </r>
       <r>   -11.2787     8.4670    96.4725 </r>
       <r>   -11.1470     5.5379    97.2018 </r>
       <r>   -11.0153     7.7794    98.2263 </r>
       <r>   -10.8836    13.0067    99.9392 </r>
       <r>   -10.7519    16.9298   102.1688 </r>
       <r>   -10.6202     2.0295   102.4361 </r>
       <r>   -10.4886    20.5348   105.1404 </r>
       <r>   -10.3569     3.8752   105.6507 </r>
       <r>   -10.2252    24.6848   108.9016 </r>
       <r>   -10.0935    25.3419   112.2389 </r>
       <r>    -9.9618    18.3678   114.6579 </r>
       <r>    -9.8301    14.9231   116.6232 </r>
       <r>    -9.6984    17.3059   118.9022 </r>
       <r>    -9.5667    27.7024   122.5505 </r>
       <r>    -9.4350    20.7413   125.2820 </r>
       <r>    -9.3033    27.4374   128.8954 </r>
       <r>    -9.1716    23.4419   131.9825 </r>
       <r>    -9.0399    28.6166   135.7512 </r>
       <r>    -8.9082    20.2820   138.4222 </r>
       <r>    -8.7765    17.3728   140.7101 </r>
       <r>    -8.6448    23.4868   143.8032 </r>
       <r>    -8.5131    17.3395   146.0867 </r>
       <r>    -8.3814    16.4088   148.2476 </r>
       <r>    -8.2498    15.3047   150.2632 </r>
       <r>    -8.1181    16.0739   152.3800 </r>
       <r>    -7.9864    28.6565   156.1539 </r>
       <r>    -7.8547    16.1750   158.2841 </r>
       <r>    -7.7230    16.2915   160.4296 </r>
       <r>    -7.5913     8.1096   161.4975 </r>
       <r>    -7.4596     2.1548   161.7813 </r>
       <r>    -7.3279    17.7439   164.1181 </r>
       <r>    -7.1962    32.3078   168.3728 </r>
       <r>    -7.0645    15.5907   170.4260 </r>
       <r>    -6.9328     4.5154   171.0207 </r>
       <r>    -6.8011    19.1848   173.5472 </r>
       <r>    -6.6694    12.7568   175.2272 </r>
       <r>    -6.5377    15.9597   177.3290 </r>
       <r>    -6.4060     7.0918   178.2630 </r>
       <r>    -6.2743    12.5059   179.9099 </r>
       <r>    -6.1426    15.3705   181.9341 </r>
       <r>    -6.0109    13.6896   183.7370 </r>
       <r>    -5.8793    20.2495   186.4037 </r>
       <r>    -5.7476     7.7280   187.4214 </r>
       <r>    -5.6159    13.7074   189.2266 </r>
       <r>    -5.4842     3.2696   189.6572 </r>
       <r>    -5.3525     7.9074   190.6986 </r>
       <r>    -5.2208     8.6009   191.8313 </r>
       <r>    -5.0891    11.8817   193.3960 </r>
       <r>    -4.9574    18.4047   195.8198 </r>
       <r>    -4.8257    14.9713   197.7914 </r>
       <r>    -4.6940     3.1898   198.2115 </r>
       <r>    -4.5623     0.0812   198.2222 </r>
       <r>    -4.4306     0.0000   198.2222 </r>
       <r>    -4.2989     3.0481   198.6236 </r>
       <r>    -4.1672    17.3793   200.9124 </r>
       <r>    -4.0355     4.8830   201.5554 </r>
       <r>    -3.9038     0.0008   201.5556 </r>
       <r>    -3.7721     0.4666   201.6170 </r>
       <r>    -3.6405     2.8941   201.9981 </r>
       <r>    -3.5088     0.2683   202.0335 </r>
       <r>    -3.3771     4.4069   202.6138 </r>
       <r>    -3.2454    12.3115   204.2352 </r>
       <r>    -3.1137    10.8512   205.6642 </r>
       <r>    -2.9820     2.6002   206.0067 </r>
       <r>    -2.8503     2.5133   206.3376 </r>
       <r>    -2.7186     9.1642   207.5445 </r>
       <r>    -2.5869     0.0839   207.5556 </r>
       <r>    -2.4552     0.0905   207.5675 </r>
       <r>    -2.3235     3.1696   207.9849 </r>
       <r>    -2.1918     2.8634   208.3620 </r>
       <r>    -2.0601     0.6262   208.4444 </r>
       <r>    -1.9284     0.0000   208.4444 </r>
       <r>    -1.7967     0.0000   208.4444 </r>
       <r>    -1.6650     0.1840   208.4687 </r>
       <r>    -1.5333     9.5163   209.7219 </r>
       <r>    -1.4017    12.5900   211.3799 </r>
       <r>    -1.2700     3.0208   211.7778 </r>
       <r>    -1.1383     0.0001   211.7778 </r>
       <r>    -1.0066     1.1510   211.9294 </r>
       <r>    -0.8749    10.9748   213.3747 </r>
       <r>    -0.7432    23.0757   216.4136 </r>
       <r>    -0.6115    18.2949   218.8230 </r>
       <r>    -0.4798     5.3345   219.5255 </r>
       <r>    -0.3481     0.2555   219.5591 </r>
       <r>    -0.2164     4.5671   220.1606 </r>
       <r>    -0.0847    11.2953   221.6481 </r>
       <r>     0.0470    10.4152   223.0197 </r>
       <r>     0.1787     0.8407   223.1305 </r>
       <r>     0.3104    16.2836   225.2749 </r>
       <r>     0.4421     7.5275   226.2662 </r>
       <r>     0.5738     3.2163   226.6898 </r>
       <r>     0.7055    11.1045   228.1522 </r>
       <r>     0.8372    16.7413   230.3569 </r>
       <r>     0.9688     6.3381   231.1916 </r>
       <r>     1.1005    11.0095   232.6415 </r>
       <r>     1.2322    14.9042   234.6043 </r>
       <r>     1.3639     8.3116   235.6989 </r>
       <r>     1.4956    15.0032   237.6747 </r>
       <r>     1.6273    23.0083   240.7048 </r>
       <r>     1.7590    15.4917   242.7450 </r>
       <r>     1.8907    27.5590   246.3743 </r>
       <r>     2.0224     8.4614   247.4886 </r>
       <r>     2.1541    16.1812   249.6196 </r>
       <r>     2.2858    26.5056   253.1102 </r>
       <r>     2.4175    33.0699   257.4654 </r>
       <r>     2.5492     9.2533   258.6840 </r>
       <r>     2.6809     6.2257   259.5038 </r>
       <r>     2.8126     8.0688   260.5665 </r>
       <r>     2.9443     6.1228   261.3728 </r>
       <r>     3.0760     9.2160   262.5865 </r>
       <r>     3.2076     2.4362   262.9073 </r>
       <r>     3.3393     1.5473   263.1111 </r>
       <r>     3.4710     0.0010   263.1112 </r>
       <r>     3.6027     1.9827   263.3723 </r>
       <r>     3.7344     1.3912   263.5555 </r>
       <r>     3.8661     0.0001   263.5556 </r>
       <r>     3.9978     0.0000   263.5556 </r>
       <r>     4.1295     0.2963   263.5946 </r>
       <r>     4.2612     3.0486   263.9961 </r>
       <r>     4.3929     0.0300   264.0000 </r>
       <r>     4.5246     0.0000   264.0000 </r>
       <r>     4.6563     0.0000   264.0000 </r>
       <r>     4.7880     0.0000   264.0000 </r>
       <r>     4.9197     0.0000   264.0000 </r>
       <r>     5.0514     0.0000   264.0000 </r>
       <r>     5.1831     0.0000   264.0000 </r>
       <r>     5.3148     0.0000   264.0000 </r>
       <r>     5.4465     0.0000   264.0000 </r>
       <r>     5.5781     0.0000   264.0000 </r>
       <r>     5.7098     0.0000   264.0000 </r>
       <r>     5.8415     0.0000   264.0000 </r>
       <r>     5.9732     0.0000   264.0000 </r>
      </set>
     </set>
    </array>
   </total>
  </dos>
 </calculation>
 <structure name="finalpos" >
  <crystal>
   <varray name="basis" >
    <v>      12.30000019       0.00000000       0.00000000 </v>
    <v>       6.15000080      10.65211222       0.00000000 </v>
    <v>       0.00000000       0.00000000      20.00000000 </v>
   </varray>
   <i name="volume">   2620.41964732 </i>
   <varray name="rec_basis" >
    <v>       0.08130081      -0.04693905       0.00000000 </v>
    <v>       0.00000000       0.09387809       0.00000000 </v>
    <v>       0.00000000       0.00000000       0.05000000 </v>
   </varray>
  </crystal>
  <varray name="positions" >
   <v>       0.00000000       0.00000000       0.41799748 </v>
   <v>       0.20000000       0.00000000       0.41799748 </v>
   <v>       0.40000000       0.00000000       0.41799748 </v>
   <v>       0.60000000       0.00000000       0.41799748 </v>
   <v>       0.80000000       0.00000000       0.41799748 </v>
   <v>       0.00000000       0.20000000       0.41799748 </v>
   <v>       0.20000000       0.20000000       0.41799748 </v>
   <v>       0.40000000       0.20000000       0.41799748 </v>
   <v>       0.60000000       0.20000000       0.41799748 </v>
   <v>       0.80000000       0.20000000       0.41799748 </v>
   <v>       0.00000000       0.40000000       0.41799748 </v>
   <v>       0.20000000       0.40000000       0.41799748 </v>
   <v>       0.40000000       0.40000000       0.41799748 </v>
   <v>       0.60000000       0.40000000       0.41799748 </v>
   <v>       0.80000000       0.40000000       0.41799748 </v>
   <v>       0.00000000       0.60000000       0.41799748 </v>
   <v>       0.20000000       0.60000000       0.41799748 </v>
   <v>       0.40000000       0.60000000       0.41799748 </v>
   <v>       0.60000000       0.60000000       0.41799748 </v>
   <v>       0.80000000       0.60000000       0.41799748 </v>
   <v>       0.00000000       0.80000000       0.41799748 </v>
   <v>       0.20000000       0.80000000       0.41799748 </v>
   <v>       0.40000000       0.80000000       0.41799748 </v>
   <v>       0.60000000       0.80000000       0.41799748 </v>
   <v>       0.80000000       0.80000000       0.41799748 </v>
   <v>       0.06666667       0.06666660       0.41800609 </v>
   <v>       0.26666667       0.06666660       0.41800609 </v>
   <v>       0.46666667       0.06666660       0.41800609 </v>
   <v>       0.66666667       0.06666660       0.41800609 </v>
   <v>       0.86666667       0.06666660       0.41800609 </v>
   <v>       0.06666667       0.26666660       0.41800609 </v>
   <v>       0.26666667       0.26666660       0.41750609 </v>
   <v>       0.46666667       0.26666660       0.41800609 </v>
   <v>       0.66666667       0.26666660       0.41800609 </v>
   <v>       0.86666667       0.26666660       0.41800609 </v>
   <v>       0.06666667       0.46666660       0.41800609 </v>
   <v>       0.26666667       0.46666660       0.41800609 </v>
   <v>       0.46666667       0.46666660       0.41800609 </v>
   <v>       0.66666667       0.46666660       0.41800609 </v>
   <v>       0.86666667       0.46666660       0.41800609 </v>
   <v>       0.06666667       0.66666660       0.41800609 </v>
   <v>       0.26666667       0.66666660       0.41800609 </v>
   <v>       0.46666667       0.66666660       0.41800609 </v>
   <v>       0.66666667       0.66666660       0.41800609 </v>
   <v>       0.86666667       0.66666660       0.41800609 </v>
   <v>       0.06666667       0.86666660       0.41800609 </v>
   <v>       0.26666667       0.86666660       0.41800609 </v>
   <v>       0.46666667       0.86666660       0.41800609 </v>
   <v>       0.66666667       0.86666660       0.41800609 </v>
   <v>       0.86666667       0.86666660       0.41800609 </v>
   <v>       0.40000000       0.40000000       0.46800609 </v>
  </varray>
  <varray name="velocities" >
   <v>       0.00000000       0.00000000       0.00000000 </v>
   <v>       0.00000000       0.00000000       0.00000000 </v>
   <v>       0.00000000       0.00000000       0.00000000 </v>
   <v>       0.00000000       0.00000000       0.00000000 </v>
   <v>       0.00000000       0.00000000       0.00000000 </v>
   <v>       0.00000000       0.00000000       0.00000000 </v>
   <v>       0.00000000       0.00000000       0.00000000 </v>
   <v>       0.00000000       0.00000000       0.00000000 </v>
   <v>       0.00000000       0.00000000       0.00000000 </v>
   <v>       0.00000000       0.00000000       0.00000000 </v>
   <v>       0.00000000       0.00000000       0.00000000 </v>
   <v>       0.00000000       0.00000000       0.00000000 </v>
   <v>       0.00000000       0.00000000       0.00000000 </v>
   <v>       0.00000000       0.00000000       0.00000000 </v>
   <v>       0.00000000       0.00000000       0.00000000 </v>
   <v>       0.00000000       0.00000000       0.00000000 </v>
   <v>       0.00000000       0.00000000       0.00000000 </v>
   <v>       0.00000000       0.00000000       0.00000000 </v>
   <v>       0.00000000       0.00000000       0.00000000 </v>
   <v>       0.00000000       0.00000000       0.00000000 </v>
   <v>       0.00000000       0.00000000       0.00000000 </v>
   <v>       0.00000000       0.00000000       0.00000000 </v>
   <v>       0.00000000       0.00000000       0.00000000 </v>
   <v>       0.00000000       0.00000000       0.00000000 </v>
   <v>       0.00000000       0.00000000       0.00000000 </v>
   <v>       0.00000000       0.00000000       0.00000000 </v>
   <v>       0.00000000       0.00000000       0.00000000 </v>
   <v>       0.00000000       0.00000000       0.00000000 </v>
   <v>       0.00000000       0.00000000       0.00000000 </v>
   <v>       0.00000000       0.00000000       0.00000000 </v>
   <v>       0.00000000       0.00000000       0.00000000 </v>
   <v>       0.00000000       0.00000000       0.00000000 </v>
   <v>       0.00000000       0.00000000       0.00000000 </v>
   <v>       0.00000000       0.00000000       0.00000000 </v>
   <v>       0.00000000       0.00000000       0.00000000 </v>
   <v>       0.00000000       0.00000000       0.00000000 </v>
   <v>       0.00000000       0.00000000       0.00000000 </v>
   <v>       0.00000000       0.00000000       0.00000000 </v>
   <v>       0.00000000       0.00000000       0.00000000 </v>
   <v>       0.00000000       0.00000000       0.00000000 </v>
   <v>       0.00000000       0.00000000       0.00000000 </v>
   <v>       0.00000000       0.00000000       0.00000000 </v>
   <v>       0.00000000       0.00000000       0.00000000 </v>
   <v>       0.00000000       0.00000000       0.00000000 </v>
   <v>       0.00000000       0.00000000       0.00000000 </v>
   <v>       0.00000000       0.00000000       0.00000000 </v>
   <v>       0.00000000       0.00000000       0.00000000 </v>
   <v>       0.00000000       0.00000000       0.00000000 </v>
   <v>       0.00000000       0.00000000       0.00000000 </v>
   <v>       0.00000000       0.00000000       0.00000000 </v>
   <v>       0.00000000       0.00000000       0.00000000 </v>
  </varray>
 </structure>
</modeling>
