 vasp.5.4.4.18Apr17-6-g9f103f2a35 (build Aug 13 2022 23:40:43) complex          
  
 executed on             LinuxIFC date 2024.11.10  04:21:52
 running on   48 total cores
 distrk:  each k-point on   48 cores,    1 groups
 distr:  one band on NCORES_PER_BAND=   8 cores,    6 groups


--------------------------------------------------------------------------------------------------------


 INCAR:
 POTCAR:    PAW_PBE C 08Apr2002                   
 POTCAR:    PAW_PBE O 08Apr2002                   
 POTCAR:    PAW_PBE C 08Apr2002                   
   VRHFIN =C: s2p2                                                              
   LEXCH  = PE                                                                  
   EATOM  =   147.1560 eV,   10.8157 Ry                                         
                                                                                
   TITEL  = PAW_PBE C 08Apr2002                                                 
   LULTRA =        F    use ultrasoft PP ?                                      
   IUNSCR =        1    unscreen: 0-lin 1-nonlin 2-no                           
   RPACOR =    1.200    partial core radius                                     
   POMASS =   12.011; ZVAL   =    4.000    mass and valenz                      
   RCORE  =    1.500    outmost cutoff radius                                   
   RWIGS  =    1.630; RWIGS  =    0.863    wigner-seitz radius (au A)           
   ENMAX  =  400.000; ENMIN  =  300.000 eV                                      
   ICORE  =        2    local potential                                         
   LCOR   =        T    correct aug charges                                     
   LPAW   =        T    paw PP                                                  
   EAUG   =  644.873                                                            
   DEXC   =    0.000                                                            
   RMAX   =    1.529    core radius for proj-oper                               
   RAUG   =    1.300    factor for augmentation sphere                          
   RDEP   =    1.501    radius for radial grids                                 
   RDEPT  =    1.300    core radius for aug-charge                              
                                                                                
   Atomic configuration                                                         
    4 entries                                                                   
     n  l   j            E        occ.                                          
     1  0  0.50      -273.3789   2.0000                                         
     2  0  0.50       -13.7508   2.0000                                         
     2  1  0.50        -5.2854   2.0000                                         
     3  2  1.50        -5.4423   0.0000                                         
   Description                                                                  
     l       E           TYP  RCUT    TYP  RCUT                                 
     0    -13.7508458     23  1.200                                             
     0     -8.2022199     23  1.200                                             
     1     -5.2854383     23  1.500                                             
     1     34.0145650     23  1.500                                             
     2     -5.4423304      7  1.500                                             
  local pseudopotential read in
  partial core-charges read in
  partial kinetic energy density read in
  atomic valenz-charges read in
  non local Contribution for L=           0  read in
    real space projection operators read in
  non local Contribution for L=           0  read in
    real space projection operators read in
  non local Contribution for L=           1  read in
    real space projection operators read in
  non local Contribution for L=           1  read in
    real space projection operators read in
    PAW grid and wavefunctions read in
 
   number of l-projection  operators is LMAX  =           4
   number of lm-projection operators is LMMAX =           8
 
 POTCAR:    PAW_PBE O 08Apr2002                   
   VRHFIN =O: s2p4                                                              
   LEXCH  = PE                                                                  
   EATOM  =   432.3788 eV,   31.7789 Ry                                         
                                                                                
   TITEL  = PAW_PBE O 08Apr2002                                                 
   LULTRA =        F    use ultrasoft PP ?                                      
   IUNSCR =        1    unscreen: 0-lin 1-nonlin 2-no                           
   RPACOR =    1.200    partial core radius                                     
   POMASS =   16.000; ZVAL   =    6.000    mass and valenz                      
   RCORE  =    1.520    outmost cutoff radius                                   
   RWIGS  =    1.550; RWIGS  =    0.820    wigner-seitz radius (au A)           
   ENMAX  =  400.000; ENMIN  =  300.000 eV                                      
   ICORE  =        2    local potential                                         
   LCOR   =        T    correct aug charges                                     
   LPAW   =        T    paw PP                                                  
   EAUG   =  605.392                                                            
   DEXC   =    0.000                                                            
   RMAX   =    1.553    core radius for proj-oper                               
   RAUG   =    1.300    factor for augmentation sphere                          
   RDEP   =    1.550    radius for radial grids                                 
   RDEPT  =    1.329    core radius for aug-charge                              
                                                                                
   Atomic configuration                                                         
    4 entries                                                                   
     n  l   j            E        occ.                                          
     1  0  0.50      -514.6923   2.0000                                         
     2  0  0.50       -23.9615   2.0000                                         
     2  1  0.50        -9.0305   4.0000                                         
     3  2  1.50        -9.5241   0.0000                                         
   Description                                                                  
     l       E           TYP  RCUT    TYP  RCUT                                 
     0    -23.9615318     23  1.200                                             
     0     -9.5240782     23  1.200                                             
     1     -9.0304911     23  1.520                                             
     1      8.1634956     23  1.520                                             
     2     -9.5240782      7  1.500                                             
  local pseudopotential read in
  partial core-charges read in
  partial kinetic energy density read in
  kinetic energy density of atom read in
  atomic valenz-charges read in
  non local Contribution for L=           0  read in
    real space projection operators read in
  non local Contribution for L=           0  read in
    real space projection operators read in
  non local Contribution for L=           1  read in
    real space projection operators read in
  non local Contribution for L=           1  read in
    real space projection operators read in
    PAW grid and wavefunctions read in
 
   number of l-projection  operators is LMAX  =           4
   number of lm-projection operators is LMMAX =           8
 

 ----------------------------------------------------------------------------- 
|                                                                             |
|  ADVICE TO THIS USER RUNNING 'VASP/VAMP'   (HEAR YOUR MASTER'S VOICE ...):  |
|                                                                             |
|      You have a (more or less) 'large supercell' and for larger cells       |
|      it might be more efficient to use real space projection opertators     |
|      So try LREAL= Auto  in the INCAR   file.                               |
|      Mind:          For very  accurate calculation you might also keep the  |
|      reciprocal projection scheme          (i.e. LREAL=.FALSE.)             |
|                                                                             |
 ----------------------------------------------------------------------------- 

  PAW_PBE C 08Apr2002                   :
 energy of atom  1       EATOM= -147.1560
 kinetic energy error for atom=    0.0288 (will be added to EATOM!!)
  PAW_PBE O 08Apr2002                   :
 energy of atom  2       EATOM= -432.3788
 kinetic energy error for atom=    0.1156 (will be added to EATOM!!)
 
 
 POSCAR: generated by phonopy                    
  positions in direct lattice
  No initial velocities read in
 exchange correlation table for  LEXCH =        8
   RHO(1)=    0.500       N(1)  =     2000
   RHO(2)=  100.500       N(2)  =     4000

 VTST: version 3.2, (02/03/18)

 CHAIN: initializing optimizer
 
 OPT: Using VASP Dynamics algorithm
 CHAIN: Read ICHAIN            0
 
 POSCAR: generated by phonopy                    
  positions in direct lattice
  No initial velocities read in
 


--------------------------------------------------------------------------------------------------------


 ion  position               nearest neighbor table
   1  0.000  0.000  0.418-  26 1.42  30 1.42  46 1.42
   2  0.200  0.000  0.418-  27 1.42  26 1.42  47 1.42
   3  0.400  0.000  0.418-  28 1.42  27 1.42  48 1.42
   4  0.600  0.000  0.418-  29 1.42  28 1.42  49 1.42
   5  0.800  0.000  0.418-  30 1.42  29 1.42  50 1.42
   6  0.000  0.200  0.418-  31 1.42  35 1.42  26 1.42
   7  0.200  0.200  0.418-  32 1.42  31 1.42  27 1.42
   8  0.400  0.200  0.418-  32 1.42  28 1.42  33 1.42
   9  0.600  0.200  0.418-  34 1.42  29 1.42  33 1.42
  10  0.800  0.200  0.418-  35 1.42  34 1.42  30 1.42
  11  0.000  0.400  0.418-  36 1.42  40 1.42  31 1.42
  12  0.200  0.400  0.418-  37 1.42  36 1.42  32 1.42
  13  0.400  0.400  0.418-  51 1.00  38 1.42  37 1.42  33 1.42
  14  0.600  0.400  0.418-  39 1.42  38 1.42  34 1.42
  15  0.800  0.400  0.418-  40 1.42  39 1.42  35 1.42
  16  0.000  0.600  0.418-  41 1.42  45 1.42  36 1.42
  17  0.200  0.600  0.418-  42 1.42  41 1.42  37 1.42
  18  0.400  0.600  0.418-  43 1.42  42 1.42  38 1.42
  19  0.600  0.600  0.418-  44 1.42  43 1.42  39 1.42
  20  0.800  0.600  0.418-  45 1.42  44 1.42  40 1.42
  21  0.000  0.800  0.418-  46 1.42  50 1.42  41 1.42
  22  0.200  0.800  0.418-  47 1.42  46 1.42  42 1.42
  23  0.400  0.800  0.418-  48 1.42  47 1.42  43 1.42
  24  0.600  0.800  0.418-  49 1.42  48 1.42  44 1.42
  25  0.800  0.800  0.418-  50 1.42  49 1.42  45 1.42
  26  0.067  0.067  0.418-   1 1.42   2 1.42   6 1.42
  27  0.267  0.067  0.418-   2 1.42   3 1.42   7 1.42
  28  0.467  0.067  0.418-   3 1.42   4 1.42   8 1.42
  29  0.667  0.067  0.418-   4 1.42   5 1.42   9 1.42
  30  0.867  0.067  0.418-   5 1.42   1 1.42  10 1.42
  31  0.067  0.267  0.418-   6 1.42   7 1.42  11 1.42
  32  0.267  0.267  0.418-   7 1.42   8 1.42  12 1.42
  33  0.467  0.267  0.418-   8 1.42   9 1.42  13 1.42  51 1.74
  34  0.667  0.267  0.418-   9 1.42  10 1.42  14 1.42
  35  0.867  0.267  0.418-  10 1.42   6 1.42  15 1.42
  36  0.067  0.467  0.418-  11 1.42  12 1.42  16 1.42
  37  0.267  0.467  0.418-  12 1.42  13 1.42  17 1.42  51 1.74
  38  0.467  0.467  0.418-  13 1.42  14 1.42  18 1.42  51 1.74
  39  0.667  0.467  0.418-  14 1.42  15 1.42  19 1.42
  40  0.867  0.467  0.418-  15 1.42  11 1.42  20 1.42
  41  0.067  0.667  0.418-  16 1.42  17 1.42  21 1.42
  42  0.267  0.667  0.418-  17 1.42  18 1.42  22 1.42
  43  0.467  0.667  0.418-  18 1.42  19 1.42  23 1.42
  44  0.667  0.667  0.418-  19 1.42  20 1.42  24 1.42
  45  0.867  0.667  0.418-  20 1.42  16 1.42  25 1.42
  46  0.067  0.867  0.418-  21 1.42  22 1.42   1 1.42
  47  0.267  0.867  0.418-  22 1.42  23 1.42   2 1.42
  48  0.467  0.867  0.418-  23 1.42  24 1.42   3 1.42
  49  0.667  0.867  0.418-  24 1.42  25 1.42   4 1.42
  50  0.867  0.867  0.418-  25 1.42  21 1.42   5 1.42
  51  0.400  0.400  0.468-  13 1.00  38 1.74  37 1.74  33 1.74
 
  LATTYP: Found a hexagonal cell.
 ALAT       =    12.2999994816
 C/A-ratio  =     1.6260163287
  
  Lattice vectors:
  
 A1 = (   6.1499993860, -10.6521122225,   0.0000000000)
 A2 = ( -12.3000001905,   0.0000000000,   0.0000000000)
 A3 = (   0.0000000000,   0.0000000000, -20.0000000000)


Analysis of symmetry for initial positions (statically):
=====================================================================
 Subroutine PRICEL returns:
 Original cell was already a primitive cell.
 

 Routine SETGRP: Setting up the symmetry group for a 
 hexagonal supercell.


 Subroutine GETGRP returns: Found  2 space group operations
 (whereof  1 operations were pure point group operations)
 out of a pool of 24 trial point group operations.


The static configuration has the point symmetry C_1 .
 The point group associated with its full space group is C_1h.


Analysis of symmetry for dynamics (positions and initial velocities):
=====================================================================
 Subroutine PRICEL returns:
 Original cell was already a primitive cell.
 

 Routine SETGRP: Setting up the symmetry group for a 
 hexagonal supercell.


 Subroutine GETGRP returns: Found  2 space group operations
 (whereof  1 operations were pure point group operations)
 out of a pool of 24 trial point group operations.


The dynamic configuration has the point symmetry C_1 .
 The point group associated with its full space group is C_1h.


 Subroutine INISYM returns: Found  2 space group operations
 (whereof  1 operations are pure point group operations),
 and found     1 'primitive' translations

 
 
 KPOINTS: K-POINTS                                

Automatic generation of k-mesh.
Space group operators:
 irot       det(A)        alpha          n_x          n_y          n_z        tau_x        tau_y        tau_z
    1     1.000000     0.000000     1.000000     0.000000     0.000000     0.000000     0.000000     0.000000
    2    -1.000000   180.000000     1.000000    -0.000000     0.000000    -0.800000     0.000000     0.000000
 
 Subroutine IBZKPT returns following result:
 ===========================================
 
 Found      4 irreducible k-points:
 
 Following reciprocal coordinates:
            Coordinates               Weight
  0.000000  0.000000  0.000000      1.000000
  0.333333  0.000000  0.000000      4.000000
  0.000000  0.333333  0.000000      2.000000
 -0.333333  0.333333  0.000000      2.000000
 
 Following cartesian coordinates:
            Coordinates               Weight
  0.000000  0.000000  0.000000      1.000000
  0.027100 -0.015646  0.000000      4.000000
  0.000000  0.031293  0.000000      2.000000
 -0.027100  0.046939  0.000000      2.000000
 


--------------------------------------------------------------------------------------------------------




 Dimension of arrays:
   k-points           NKPTS =      4   k-points in BZ     NKDIM =      4   number of bands    NBANDS=    132
   number of dos      NEDOS =    301   number of ions     NIONS =     51
   non local maximal  LDIM  =      4   non local SUM 2l+1 LMDIM =      8
   total plane-waves  NPLWV = 896000
   max r-space proj   IRMAX =      1   max aug-charges    IRDMAX=  35685
   dimension x,y,z NGX =    80 NGY =   80 NGZ =  140
   dimension x,y,z NGXF=   160 NGYF=  160 NGZF=  280
   support grid    NGXF=   320 NGYF=  320 NGZF=  560
   ions per type =              50   1
   NGX,Y,Z   is equivalent  to a cutoff of  10.81, 10.81, 11.64 a.u.
   NGXF,Y,Z  is equivalent  to a cutoff of  21.63, 21.63, 23.27 a.u.

 SYSTEM =                                          
 POSCAR =  generated by phonopy                    

 Startparameter for this run:
   NWRITE =      2    write-flag & timer
   PREC   = accura    normal or accurate (medium, high low for compatibility)
   ISTART =      1    job   : 0-new  1-cont  2-samecut
   ICHARG =      1    charge: 1-file 2-atom 10-const
   ISPIN  =      1    spin polarized calculation?
   LNONCOLLINEAR =      F non collinear calculations
   LSORBIT =      F    spin-orbit coupling
   INIWAV =      1    electr: 0-lowe 1-rand  2-diag
   LASPH  =      F    aspherical Exc in radial PAW
   METAGGA=      F    non-selfconsistent MetaGGA calc.

 Electronic Relaxation 1
   ENCUT  =  400.0 eV  29.40 Ry    5.42 a.u.  20.06 20.06 32.61*2*pi/ulx,y,z
   ENINI  =  400.0     initial cutoff
   ENAUG  =  644.9 eV  augmentation charge cutoff
   NELM   =    300;   NELMIN=  2; NELMDL=  0     # of ELM steps 
   EDIFF  = 0.1E-04   stopping-criterion for ELM
   LREAL  =      F    real-space projection
   NLSPLINE    = F    spline interpolate recip. space projectors
   LCOMPAT=      F    compatible to vasp.4.4
   GGA_COMPAT  = T    GGA compatible to vasp.4.4-vasp.4.6
   LMAXPAW     = -100 max onsite density
   LMAXMIX     =    2 max onsite mixed and CHGCAR
   VOSKOWN=      0    Vosko Wilk Nusair interpolation
   ROPT   =    0.00000   0.00000
 Ionic relaxation
   EDIFFG = -.1E-02   stopping-criterion for IOM
   NSW    =      1    number of steps for IOM
   NBLOCK =      1;   KBLOCK =      1    inner block; outer block 
   IBRION =     -1    ionic relax: 0-MD 1-quasi-New 2-CG
   NFREE  =      0    steps in history (QN), initial steepest desc. (CG)
   ISIF   =      2    stress and relaxation
   IWAVPR =     10    prediction:  0-non 1-charg 2-wave 3-comb
   ISYM   =      2    0-nonsym 1-usesym 2-fastsym
   LCORR  =      T    Harris-Foulkes like correction to forces

   POTIM  = 0.5000    time-step for ionic-motion
   TEIN   =    0.0    initial temperature
   TEBEG  =    0.0;   TEEND  =   0.0 temperature during run
   SMASS  =  -3.00    Nose mass-parameter (am)
   estimated Nose-frequenzy (Omega)   =  0.10E-29 period in steps =****** mass=  -0.346E-26a.u.
   SCALEE = 1.0000    scale energy and forces
   NPACO  =    256;   APACO  = 16.0  distance and # of slots for P.C.
   PSTRESS=    0.0 pullay stress

  Mass of Ions in am
   POMASS =  12.01 16.00
  Ionic Valenz
   ZVAL   =   4.00  6.00
  Atomic Wigner-Seitz radii
   RWIGS  =  -1.00 -1.00
  virtual crystal weights 
   VCA    =   1.00  1.00
   NELECT =     206.0000    total number of electrons
   NUPDOWN=      -1.0000    fix difference up-down

 DOS related values:
   EMIN   =  10.00;   EMAX   =-10.00  energy-range for DOS
   EFERMI =   0.00
   ISMEAR =     0;   SIGMA  =   0.05  broadening in eV -4-tet -1-fermi 0-gaus

 Electronic relaxation 2 (details)
   IALGO  =     68    algorithm
   LDIAG  =      T    sub-space diagonalisation (order eigenvalues)
   LSUBROT=      F    optimize rotation matrix (better conditioning)
   TURBO    =      0    0=normal 1=particle mesh
   IRESTART =      0    0=no restart 2=restart with 2 vectors
   NREBOOT  =      0    no. of reboots
   NMIN     =      0    reboot dimension
   EREF     =   0.00    reference energy to select bands
   IMIX   =      4    mixing-type and parameters
     AMIX     =   0.40;   BMIX     =  1.00
     AMIX_MAG =   1.60;   BMIX_MAG =  1.00
     AMIN     =   0.10
     WC   =   100.;   INIMIX=   1;  MIXPRE=   1;  MAXMIX= -45

 Intra band minimization:
   WEIMIN = 0.0000     energy-eigenvalue tresh-hold
   EBREAK =  0.19E-07  absolut break condition
   DEPER  =   0.30     relativ break condition  

   TIME   =   0.40     timestep for ELM

  volume/ion in A,a.u.               =      51.38       346.73
  Fermi-wavevector in a.u.,A,eV,Ry     =   0.701305  1.325274  6.691736  0.491829
  Thomas-Fermi vector in A             =   1.785695
 
 Write flags
   LWAVE        =      F    write WAVECAR
   LDOWNSAMPLE  =      F    k-point downsampling of WAVECAR
   LCHARG       =      F    write CHGCAR
   LVTOT        =      F    write LOCPOT, total local potential
   LVHAR        =      F    write LOCPOT, Hartree potential only
   LELF         =      F    write electronic localiz. function (ELF)
   LORBIT       =      0    0 simple, 1 ext, 2 COOP (PROOUT), +10 PAW based schemes


 Dipole corrections
   LMONO  =      F    monopole corrections only (constant potential shift)
   LDIPOL =      F    correct potential (dipole corrections)
   IDIPOL =      0    1-x, 2-y, 3-z, 4-all directions 
   EPSILON=  1.0000000 bulk dielectric constant

 Exchange correlation treatment:
   GGA     =    --    GGA type
   LEXCH   =     8    internal setting for exchange type
   VOSKOWN=      0    Vosko Wilk Nusair interpolation
   LHFCALC =     F    Hartree Fock is set to
   LHFONE  =     F    Hartree Fock one center treatment
   AEXX    =    0.0000 exact exchange contribution

 Linear response parameters
   LEPSILON=     F    determine dielectric tensor
   LRPA    =     F    only Hartree local field effects (RPA)
   LNABLA  =     F    use nabla operator in PAW spheres
   LVEL    =     F    velocity operator in full k-point grid
   LINTERFAST=   F  fast interpolation
   KINTER  =     0    interpolate to denser k-point grid
   CSHIFT  =0.1000    complex shift for real part using Kramers Kronig
   OMEGAMAX=  -1.0    maximum frequency
   DEG_THRESHOLD= 0.2000000E-02 threshold for treating states as degnerate
   RTIME   =   -0.100 relaxation time in fs
  (WPLASMAI=    0.000 imaginary part of plasma frequency in eV, 0.658/RTIME)
   DFIELD  = 0.0000000 0.0000000 0.0000000 field for delta impulse in time
 
 Orbital magnetization related:
   ORBITALMAG=     F  switch on orbital magnetization
   LCHIMAG   =     F  perturbation theory with respect to B field
   DQ        =  0.001000  dq finite difference perturbation B field
   LLRAUG    =     F  two centre corrections for induced B field



--------------------------------------------------------------------------------------------------------


 Static calculation
 charge density and potential will be updated during run
 non-spin polarized calculation
 RMM-DIIS sequential band-by-band and
  variant of blocked Davidson during initial phase
 perform sub-space diagonalisation
    before iterative eigenvector-optimisation
 modified Broyden-mixing scheme, WC =      100.0
 initial mixing is a Kerker type mixing with AMIX =  0.4000 and BMIX =      1.0000
 Hartree-type preconditioning will be used
 using additional bands           29
 reciprocal scheme for non local part
 use partial core corrections
 calculate Harris-corrections to forces 
   (improved forces if not selfconsistent)
 use gradient corrections 
 use of overlap-Matrix (Vanderbilt PP)
 Gauss-broadening in eV      SIGMA  =   0.05


--------------------------------------------------------------------------------------------------------


  energy-cutoff  :      400.00
  volume of cell :     2620.42
      direct lattice vectors                 reciprocal lattice vectors
    12.300000191  0.000000000  0.000000000     0.081300812 -0.046939053  0.000000000
     6.150000804 10.652112223  0.000000000     0.000000000  0.093878095  0.000000000
     0.000000000  0.000000000 20.000000000     0.000000000  0.000000000  0.050000000

  length of vectors
    12.300000191 12.300000191 20.000000000     0.093878095  0.093878095  0.050000000


 
 old parameters found on file WAVECAR:
  energy-cutoff  :      400.00
  volume of cell :     2620.42
      direct lattice vectors                 reciprocal lattice vectors
    12.300000191  0.000000000  0.000000000     0.081300812 -0.046939053  0.000000000
     6.150000804 10.652112223  0.000000000     0.000000000  0.093878095  0.000000000
     0.000000000  0.000000000 20.000000000     0.000000000  0.000000000  0.050000000

  length of vectors

 
 k-points in units of 2pi/SCALE and weight: K-POINTS                                
   0.00000000  0.00000000  0.00000000       0.111
   0.02710027 -0.01564635  0.00000000       0.444
   0.00000000  0.03129270  0.00000000       0.222
  -0.02710027  0.04693905  0.00000000       0.222
 
 k-points in reciprocal lattice and weights: K-POINTS                                
   0.00000000  0.00000000  0.00000000       0.111
   0.33333333  0.00000000  0.00000000       0.444
   0.00000000  0.33333333  0.00000000       0.222
  -0.33333333  0.33333333  0.00000000       0.222
 
 position of ions in fractional coordinates (direct lattice) 
   0.00000000  0.00000000  0.41799748
   0.20000000  0.00000000  0.41799748
   0.40000000  0.00000000  0.41799748
   0.60000000  0.00000000  0.41799748
   0.80000000  0.00000000  0.41799748
   0.00000000  0.20000000  0.41799748
   0.20000000  0.20000000  0.41799748
   0.40000000  0.20000000  0.41799748
   0.60000000  0.20000000  0.41799748
   0.80000000  0.20000000  0.41799748
   0.00000000  0.40000000  0.41799748
   0.20000000  0.40000000  0.41799748
   0.40000000  0.40000000  0.41799748
   0.60000000  0.40000000  0.41799748
   0.80000000  0.40000000  0.41799748
   0.00000000  0.60000000  0.41799748
   0.20000000  0.60000000  0.41799748
   0.40000000  0.60000000  0.41799748
   0.60000000  0.60000000  0.41799748
   0.80000000  0.60000000  0.41799748
   0.00000000  0.80000000  0.41799748
   0.20000000  0.80000000  0.41799748
   0.40000000  0.80000000  0.41799748
   0.60000000  0.80000000  0.41799748
   0.80000000  0.80000000  0.41799748
   0.06666667  0.06666660  0.41800609
   0.26666667  0.06666660  0.41800609
   0.46666667  0.06666660  0.41800609
   0.66666667  0.06666660  0.41800609
   0.86666667  0.06666660  0.41800609
   0.06666667  0.26666660  0.41800609
   0.26666667  0.26666660  0.41800609
   0.46666667  0.26666660  0.41750609
   0.66666667  0.26666660  0.41800609
   0.86666667  0.26666660  0.41800609
   0.06666667  0.46666660  0.41800609
   0.26666667  0.46666660  0.41800609
   0.46666667  0.46666660  0.41800609
   0.66666667  0.46666660  0.41800609
   0.86666667  0.46666660  0.41800609
   0.06666667  0.66666660  0.41800609
   0.26666667  0.66666660  0.41800609
   0.46666667  0.66666660  0.41800609
   0.66666667  0.66666660  0.41800609
   0.86666667  0.66666660  0.41800609
   0.06666667  0.86666660  0.41800609
   0.26666667  0.86666660  0.41800609
   0.46666667  0.86666660  0.41800609
   0.66666667  0.86666660  0.41800609
   0.86666667  0.86666660  0.41800609
   0.40000000  0.40000000  0.46800609
 
 position of ions in cartesian coordinates  (Angst):
   0.00000000  0.00000000  8.35994958
   2.46000004  0.00000000  8.35994958
   4.92000008  0.00000000  8.35994958
   7.38000011  0.00000000  8.35994958
   9.84000015  0.00000000  8.35994958
   1.23000016  2.13042244  8.35994958
   3.69000020  2.13042244  8.35994958
   6.15000024  2.13042244  8.35994958
   8.61000028  2.13042244  8.35994958
  11.07000031  2.13042244  8.35994958
   2.46000032  4.26084489  8.35994958
   4.92000036  4.26084489  8.35994958
   7.38000040  4.26084489  8.35994958
   9.84000044  4.26084489  8.35994958
  12.30000047  4.26084489  8.35994958
   3.69000048  6.39126733  8.35994958
   6.15000052  6.39126733  8.35994958
   8.61000056  6.39126733  8.35994958
  11.07000060  6.39126733  8.35994958
  13.53000064  6.39126733  8.35994958
   4.92000064  8.52168978  8.35994958
   7.38000068  8.52168978  8.35994958
   9.84000072  8.52168978  8.35994958
  12.30000076  8.52168978  8.35994958
  14.76000080  8.52168978  8.35994958
   1.22999970  0.71014014  8.36012184
   3.68999974  0.71014014  8.36012184
   6.14999977  0.71014014  8.36012184
   8.60999981  0.71014014  8.36012184
  11.06999985  0.71014014  8.36012184
   2.45999986  2.84056258  8.36012184
   4.91999990  2.84056258  8.36012184
   7.37999994  2.84056258  8.35012184
   9.83999997  2.84056258  8.36012184
  12.30000001  2.84056258  8.36012184
   3.69000002  4.97098503  8.36012184
   6.15000006  4.97098503  8.36012184
   8.61000010  4.97098503  8.36012184
  11.07000013  4.97098503  8.36012184
  13.53000017  4.97098503  8.36012184
   4.92000018  7.10140747  8.36012184
   7.38000022  7.10140747  8.36012184
   9.84000026  7.10140747  8.36012184
  12.30000030  7.10140747  8.36012184
  14.76000033  7.10140747  8.36012184
   6.15000034  9.23182991  8.36012184
   8.61000038  9.23182991  8.36012184
  11.07000042  9.23182991  8.36012184
  13.53000046  9.23182991  8.36012184
  15.99000049  9.23182991  8.36012184
   7.38000040  4.26084489  9.36012184
 


--------------------------------------------------------------------------------------------------------


 k-point  1 :   0.0000 0.0000 0.0000  plane waves:   47639
 k-point  2 :   0.3333 0.0000 0.0000  plane waves:   47601
 k-point  3 :   0.0000 0.3333 0.0000  plane waves:   47601
 k-point  4 :  -0.3333 0.3333 0.0000  plane waves:   47598

 maximum and minimum number of plane-waves per node :      5975     5928

 maximum number of plane-waves:     47639
 maximum index in each direction: 
   IXMAX=   20   IYMAX=   20   IZMAX=   32
   IXMIN=  -20   IYMIN=  -20   IZMIN=  -32


 parallel 3D FFT for wavefunctions:
    minimum data exchange during FFTs selected (reduces bandwidth)
 parallel 3D FFT for charge:
    minimum data exchange during FFTs selected (reduces bandwidth)


 total amount of memory used by VASP MPI-rank0    87233. kBytes
=======================================================================

   base      :      30000. kBytes
   nonl-proj :       7912. kBytes
   fftplans  :      26248. kBytes
   grid      :      14579. kBytes
   one-center:         21. kBytes
   wavefun   :       8473. kBytes
 
     INWAV:  cpu time    0.6616: real time    0.6618
 Broyden mixing: mesh for mixing (old mesh)
   NGX = 41   NGY = 41   NGZ = 65
  (NGX  =160   NGY  =160   NGZ  =280)
  gives a total of 109265 points

 initial charge density was supplied:
 number of electron     206.0000000 magnetization 
 keeping initial charge density in first step


--------------------------------------------------------------------------------------------------------


 Maximum index for augmentation-charges         1119 (set IRDMAX)


--------------------------------------------------------------------------------------------------------


 First call to EWALD:  gamma=   0.129
 Maximum number of real-space cells 3x 3x 2
 Maximum number of reciprocal cells 3x 3x 4

    FEWALD:  cpu time    0.0022: real time    0.0036


--------------------------------------- Iteration      1(   1)  ---------------------------------------


    POTLOK:  cpu time    0.1055: real time    0.1069
    SETDIJ:  cpu time    0.0832: real time    0.0845
     EDDAV:  cpu time    3.3316: real time    3.3357
       DOS:  cpu time    0.0004: real time    0.0005
    CHARGE:  cpu time    0.3346: real time    0.3351
    MIXING:  cpu time    0.0079: real time    0.0080
    --------------------------------------------
      LOOP:  cpu time    3.8634: real time    3.8708

 eigenvalue-minimisations  :  1080
 total energy-change (2. order) :-0.4541774E+03  (-0.5690280E+01)
 number of electron     206.0000000 magnetization 
 augmentation part        5.5371415 magnetization 

 Broyden mixing:
  rms(total) = 0.13659E-01    rms(broyden)= 0.13590E-01
  rms(prec ) = 0.14106E-01
  weight for this iteration     100.00

 Free energy of the ion-electron system (eV)
  ---------------------------------------------------
  alpha Z        PSCENC =        82.54348252
  Ewald energy   TEWEN  =     34515.85123605
  -Hartree energ DENC   =    -41034.26439840
  -exchange      EXHF   =         0.00000000
  -V(xc)+E(xc)   XCENC  =       721.37466006
  PAW double counting   =     22781.19595426   -22817.52509957
  entropy T*S    EENTRO =        -0.00014574
  eigenvalues    EBANDS =     -2491.97751272
  atomic energy  EATOM  =      7788.62438962
  Solvation  Ediel_sol  =         0.00000000
  ---------------------------------------------------
  free energy    TOTEN  =      -454.17743391 eV

  energy without entropy =     -454.17728818  energy(sigma->0) =     -454.17736104


--------------------------------------------------------------------------------------------------------




--------------------------------------- Iteration      1(   2)  ---------------------------------------


    POTLOK:  cpu time    0.0993: real time    0.0995
    SETDIJ:  cpu time    0.0788: real time    0.0803
    EDDIAG:  cpu time    0.6244: real time    0.6249
  RMM-DIIS:  cpu time    2.9790: real time    2.9805
    ORTHCH:  cpu time    0.0328: real time    0.0328
       DOS:  cpu time    0.0003: real time    0.0003
    CHARGE:  cpu time    0.3272: real time    0.3272
    MIXING:  cpu time    0.0075: real time    0.0076
    --------------------------------------------
      LOOP:  cpu time    4.1493: real time    4.1531

 eigenvalue-minimisations  :  1125
 total energy-change (2. order) :-0.1940497E+00  (-0.1942902E+00)
 number of electron     206.0000000 magnetization 
 augmentation part        5.5425983 magnetization 

 Broyden mixing:
  rms(total) = 0.61038E-02    rms(broyden)= 0.60938E-02
  rms(prec ) = 0.63187E-02
  weight for this iteration     100.00

 eigenvalues of (default mixing * dielectric matrix)
  average eigenvalue GAMMA=   0.9308
  0.9308

 Free energy of the ion-electron system (eV)
  ---------------------------------------------------
  alpha Z        PSCENC =        82.54348252
  Ewald energy   TEWEN  =     34515.85123605
  -Hartree energ DENC   =    -41033.86000195
  -exchange      EXHF   =         0.00000000
  -V(xc)+E(xc)   XCENC  =       721.35707115
  PAW double counting   =     22792.94796329   -22829.26799644
  entropy T*S    EENTRO =        -0.00012025
  eigenvalues    EBANDS =     -2492.56750761
  atomic energy  EATOM  =      7788.62438962
  Solvation  Ediel_sol  =         0.00000000
  ---------------------------------------------------
  free energy    TOTEN  =      -454.37148362 eV

  energy without entropy =     -454.37136337  energy(sigma->0) =     -454.37142350


--------------------------------------------------------------------------------------------------------




--------------------------------------- Iteration      1(   3)  ---------------------------------------


    POTLOK:  cpu time    0.0970: real time    0.0972
    SETDIJ:  cpu time    0.0790: real time    0.0789
    EDDIAG:  cpu time    0.6289: real time    0.6291
  RMM-DIIS:  cpu time    3.3165: real time    3.3181
    ORTHCH:  cpu time    0.0319: real time    0.0335
       DOS:  cpu time    0.0003: real time    0.0003
    CHARGE:  cpu time    0.3284: real time    0.3285
    MIXING:  cpu time    0.0074: real time    0.0074
    --------------------------------------------
      LOOP:  cpu time    4.4894: real time    4.4930

 eigenvalue-minimisations  :  1223
 total energy-change (2. order) :-0.1144539E-01  (-0.1273168E-01)
 number of electron     206.0000000 magnetization 
 augmentation part        5.5442371 magnetization 

 Broyden mixing:
  rms(total) = 0.44942E-02    rms(broyden)= 0.44921E-02
  rms(prec ) = 0.46815E-02
  weight for this iteration     100.00

 eigenvalues of (default mixing * dielectric matrix)
  average eigenvalue GAMMA=   1.1778
  1.1778  1.1778

 Free energy of the ion-electron system (eV)
  ---------------------------------------------------
  alpha Z        PSCENC =        82.54348252
  Ewald energy   TEWEN  =     34515.85123605
  -Hartree energ DENC   =    -41033.92971338
  -exchange      EXHF   =         0.00000000
  -V(xc)+E(xc)   XCENC  =       721.36094404
  PAW double counting   =     22790.77287740   -22827.09481298
  entropy T*S    EENTRO =        -0.00010993
  eigenvalues    EBANDS =     -2492.51122234
  atomic energy  EATOM  =      7788.62438962
  Solvation  Ediel_sol  =         0.00000000
  ---------------------------------------------------
  free energy    TOTEN  =      -454.38292901 eV

  energy without entropy =     -454.38281908  energy(sigma->0) =     -454.38287404


--------------------------------------------------------------------------------------------------------




--------------------------------------- Iteration      1(   4)  ---------------------------------------


    POTLOK:  cpu time    0.0971: real time    0.1001
    SETDIJ:  cpu time    0.0791: real time    0.0806
    EDDIAG:  cpu time    0.6289: real time    0.6298
  RMM-DIIS:  cpu time    2.8354: real time    2.8366
    ORTHCH:  cpu time    0.0329: real time    0.0329
       DOS:  cpu time    0.0004: real time    0.0004
    CHARGE:  cpu time    0.3284: real time    0.3285
    MIXING:  cpu time    0.0058: real time    0.0058
    --------------------------------------------
      LOOP:  cpu time    4.0080: real time    4.0146

 eigenvalue-minimisations  :  1067
 total energy-change (2. order) :-0.7186350E-03  (-0.7391853E-03)
 number of electron     206.0000000 magnetization 
 augmentation part        5.5440153 magnetization 

 Broyden mixing:
  rms(total) = 0.31016E-02    rms(broyden)= 0.30996E-02
  rms(prec ) = 0.32515E-02
  weight for this iteration     100.00

 eigenvalues of (default mixing * dielectric matrix)
  average eigenvalue GAMMA=   1.3296
  2.1124  1.3261  0.5502

 Free energy of the ion-electron system (eV)
  ---------------------------------------------------
  alpha Z        PSCENC =        82.54348252
  Ewald energy   TEWEN  =     34515.85123605
  -Hartree energ DENC   =    -41034.15878178
  -exchange      EXHF   =         0.00000000
  -V(xc)+E(xc)   XCENC  =       721.37092963
  PAW double counting   =     22786.51299165   -22822.83957737
  entropy T*S    EENTRO =        -0.00011792
  eigenvalues    EBANDS =     -2492.28820004
  atomic energy  EATOM  =      7788.62438962
  Solvation  Ediel_sol  =         0.00000000
  ---------------------------------------------------
  free energy    TOTEN  =      -454.38364765 eV

  energy without entropy =     -454.38352972  energy(sigma->0) =     -454.38358868


--------------------------------------------------------------------------------------------------------




--------------------------------------- Iteration      1(   5)  ---------------------------------------


    POTLOK:  cpu time    0.0974: real time    0.0978
    SETDIJ:  cpu time    0.0786: real time    0.0786
    EDDIAG:  cpu time    0.6294: real time    0.6295
  RMM-DIIS:  cpu time    2.6370: real time    2.6385
    ORTHCH:  cpu time    0.0327: real time    0.0328
       DOS:  cpu time    0.0004: real time    0.0004
    CHARGE:  cpu time    0.3302: real time    0.3303
    MIXING:  cpu time    0.0135: real time    0.0135
    --------------------------------------------
      LOOP:  cpu time    3.8192: real time    3.8213

 eigenvalue-minimisations  :   976
 total energy-change (2. order) :-0.6025271E-04  (-0.5714937E-04)
 number of electron     206.0000000 magnetization 
 augmentation part        5.5441044 magnetization 

 Broyden mixing:
  rms(total) = 0.61792E-03    rms(broyden)= 0.61598E-03
  rms(prec ) = 0.67313E-03
  weight for this iteration     100.00

 eigenvalues of (default mixing * dielectric matrix)
  average eigenvalue GAMMA=   1.2727
  2.3064  1.0965  1.0965  0.5913

 Free energy of the ion-electron system (eV)
  ---------------------------------------------------
  alpha Z        PSCENC =        82.54348252
  Ewald energy   TEWEN  =     34515.85123605
  -Hartree energ DENC   =    -41034.33064119
  -exchange      EXHF   =         0.00000000
  -V(xc)+E(xc)   XCENC  =       721.37840807
  PAW double counting   =     22780.65088265   -22816.98132867
  entropy T*S    EENTRO =        -0.00011331
  eigenvalues    EBANDS =     -2492.12002363
  atomic energy  EATOM  =      7788.62438962
  Solvation  Ediel_sol  =         0.00000000
  ---------------------------------------------------
  free energy    TOTEN  =      -454.38370790 eV

  energy without entropy =     -454.38359458  energy(sigma->0) =     -454.38365124


--------------------------------------------------------------------------------------------------------




--------------------------------------- Iteration      1(   6)  ---------------------------------------


    POTLOK:  cpu time    0.0977: real time    0.0978
    SETDIJ:  cpu time    0.0789: real time    0.0789
    EDDIAG:  cpu time    0.6204: real time    0.6209
  RMM-DIIS:  cpu time    2.2854: real time    2.2864
    ORTHCH:  cpu time    0.0347: real time    0.0347
       DOS:  cpu time    0.0004: real time    0.0004
    --------------------------------------------
      LOOP:  cpu time    3.1173: real time    3.1190

 eigenvalue-minimisations  :   822
 total energy-change (2. order) :-0.5426917E-05  (-0.4398772E-05)
 number of electron     206.0000000 magnetization 
 augmentation part        5.5441044 magnetization 

 Free energy of the ion-electron system (eV)
  ---------------------------------------------------
  alpha Z        PSCENC =        82.54348252
  Ewald energy   TEWEN  =     34515.85123605
  -Hartree energ DENC   =    -41034.31349704
  -exchange      EXHF   =         0.00000000
  -V(xc)+E(xc)   XCENC  =       721.37747810
  PAW double counting   =     22780.45955248   -22816.78954992
  entropy T*S    EENTRO =        -0.00011313
  eigenvalues    EBANDS =     -2492.13669200
  atomic energy  EATOM  =      7788.62438962
  Solvation  Ediel_sol  =         0.00000000
  ---------------------------------------------------
  free energy    TOTEN  =      -454.38371332 eV

  energy without entropy =     -454.38360019  energy(sigma->0) =     -454.38365676


--------------------------------------------------------------------------------------------------------




 average (electrostatic) potential at core
  the test charge radii are     0.6991  0.7215
  (the norm of the test charge is              1.0000)
       1 -58.2615       2 -58.2615       3 -58.2040       4 -58.0619       5 -58.2040
       6 -58.2612       7 -58.2773       8 -58.1323       9 -58.1323      10 -58.2773
      11 -58.2051      12 -58.1331      13 -60.6800      14 -58.1331      15 -58.2051
      16 -58.0581      17 -58.1329      18 -58.1329      19 -58.0581      20 -58.0662
      21 -58.2043      22 -58.2752      23 -58.2043      24 -58.0668      25 -58.0668
      26 -58.3831      27 -58.2946      28 -58.2224      29 -58.2224      30 -58.2946
      31 -58.2937      32 -58.3160      33 -58.7864      34 -58.3160      35 -58.2937
      36 -58.2222      37 -58.8131      38 -58.8131      39 -58.2222      40 -58.2242
      41 -58.2218      42 -58.3132      43 -58.2218      44 -58.1646      45 -58.1646
      46 -58.2927      47 -58.2927      48 -58.2243      49 -58.1662      50 -58.2243
      51 -81.5490
 
 
 
 E-fermi :  -3.0180     XC(G=0):  -2.2118     alpha+bet : -1.9409


 k-point     1 :       0.0000    0.0000    0.0000
  band No.  band energies     occupation 
      1     -31.7104      2.00000
      2     -22.2718      2.00000
      3     -21.5032      2.00000
      4     -21.5013      2.00000
      5     -21.3952      2.00000
      6     -21.3952      2.00000
      7     -21.3948      2.00000
      8     -20.8744      2.00000
      9     -19.8757      2.00000
     10     -19.8708      2.00000
     11     -19.5498      2.00000
     12     -19.5497      2.00000
     13     -19.5396      2.00000
     14     -19.1923      2.00000
     15     -18.9011      2.00000
     16     -18.8987      2.00000
     17     -18.6444      2.00000
     18     -18.6435      2.00000
     19     -18.6435      2.00000
     20     -17.8858      2.00000
     21     -17.0197      2.00000
     22     -17.0119      2.00000
     23     -16.4782      2.00000
     24     -16.4590      2.00000
     25     -16.4590      2.00000
     26     -16.0511      2.00000
     27     -15.9951      2.00000
     28     -15.9937      2.00000
     29     -15.4980      2.00000
     30     -15.4980      2.00000
     31     -15.4934      2.00000
     32     -15.0918      2.00000
     33     -14.6290      2.00000
     34     -14.6256      2.00000
     35     -14.1505      2.00000
     36     -14.1496      2.00000
     37     -14.1435      2.00000
     38     -13.9648      2.00000
     39     -12.9897      2.00000
     40     -12.9833      2.00000
     41     -12.0248      2.00000
     42     -11.7654      2.00000
     43     -11.7648      2.00000
     44     -11.7612      2.00000
     45     -11.6909      2.00000
     46     -11.6908      2.00000
     47     -11.6522      2.00000
     48     -11.6505      2.00000
     49     -11.6505      2.00000
     50     -11.6495      2.00000
     51     -10.8022      2.00000
     52     -10.8010      2.00000
     53     -10.4251      2.00000
     54     -10.3350      2.00000
     55     -10.2892      2.00000
     56     -10.2886      2.00000
     57     -10.2710      2.00000
     58     -10.0756      2.00000
     59      -9.6867      2.00000
     60      -9.6848      2.00000
     61      -9.3259      2.00000
     62      -9.3251      2.00000
     63      -9.3012      2.00000
     64      -9.2798      2.00000
     65      -9.2782      2.00000
     66      -9.0456      2.00000
     67      -9.0053      2.00000
     68      -9.0043      2.00000
     69      -8.9494      2.00000
     70      -8.9414      2.00000
     71      -8.9410      2.00000
     72      -8.9393      2.00000
     73      -8.9198      2.00000
     74      -8.9194      2.00000
     75      -8.8935      2.00000
     76      -8.4407      2.00000
     77      -7.8022      2.00000
     78      -7.8005      2.00000
     79      -7.3242      2.00000
     80      -7.3232      2.00000
     81      -7.3106      2.00000
     82      -7.3014      2.00000
     83      -7.2996      2.00000
     84      -7.2963      2.00000
     85      -7.1616      2.00000
     86      -7.1615      2.00000
     87      -7.1555      2.00000
     88      -6.7526      2.00000
     89      -6.5078      2.00000
     90      -6.5059      2.00000
     91      -6.2677      2.00000
     92      -6.2471      2.00000
     93      -6.2470      2.00000
     94      -5.9231      2.00000
     95      -5.9222      2.00000
     96      -5.1968      2.00000
     97      -4.7627      2.00000
     98      -4.7627      2.00000
     99      -4.2710      2.00000
    100      -4.2672      2.00000
    101      -4.2671      2.00000
    102      -3.2247      2.00000
    103      -3.2095      2.00000
    104      -2.9170      0.00426
    105      -1.4617      0.00000
    106      -1.4578      0.00000
    107      -1.4575      0.00000
    108      -0.9964      0.00000
    109      -0.9900      0.00000
    110      -0.5434      0.00000
    111       0.4164      0.00000
    112       0.4212      0.00000
    113       0.4212      0.00000
    114       0.5643      0.00000
    115       0.8383      0.00000
    116       0.8445      0.00000
    117       1.2938      0.00000
    118       1.3448      0.00000
    119       1.6680      0.00000
    120       1.8023      0.00000
    121       1.8035      0.00000
    122       1.8042      0.00000
    123       1.8290      0.00000
    124       1.8300      0.00000
    125       2.0388      0.00000
    126       2.1762      0.00000
    127       2.1787      0.00000
    128       2.1790      0.00000
    129       2.3461      0.00000
    130       2.3479      0.00000
    131       2.6063      0.00000
    132       2.6612      0.00000

 k-point     2 :       0.3333    0.0000    0.0000
  band No.  band energies     occupation 
      1     -31.7105      2.00000
      2     -22.1897      2.00000
      3     -21.8699      2.00000
      4     -21.6609      2.00000
      5     -21.4550      2.00000
      6     -21.0344      2.00000
      7     -20.8972      2.00000
      8     -20.7272      2.00000
      9     -20.4196      2.00000
     10     -20.1628      2.00000
     11     -19.7868      2.00000
     12     -19.6957      2.00000
     13     -19.3271      2.00000
     14     -19.2430      2.00000
     15     -19.0611      2.00000
     16     -18.5926      2.00000
     17     -18.4580      2.00000
     18     -18.1200      2.00000
     19     -18.0620      2.00000
     20     -17.5911      2.00000
     21     -17.4962      2.00000
     22     -17.3016      2.00000
     23     -17.2764      2.00000
     24     -16.8526      2.00000
     25     -16.6552      2.00000
     26     -16.1758      2.00000
     27     -15.9765      2.00000
     28     -15.8444      2.00000
     29     -15.2992      2.00000
     30     -15.1690      2.00000
     31     -15.1336      2.00000
     32     -14.8853      2.00000
     33     -14.7826      2.00000
     34     -14.4785      2.00000
     35     -14.4564      2.00000
     36     -13.7657      2.00000
     37     -13.7553      2.00000
     38     -13.1949      2.00000
     39     -13.0891      2.00000
     40     -12.9340      2.00000
     41     -12.9047      2.00000
     42     -12.5847      2.00000
     43     -12.5497      2.00000
     44     -12.3892      2.00000
     45     -12.0211      2.00000
     46     -11.6621      2.00000
     47     -11.4463      2.00000
     48     -11.2966      2.00000
     49     -11.1200      2.00000
     50     -10.9118      2.00000
     51     -10.8504      2.00000
     52     -10.5844      2.00000
     53     -10.5323      2.00000
     54     -10.2833      2.00000
     55     -10.2374      2.00000
     56     -10.1611      2.00000
     57     -10.0489      2.00000
     58      -9.8535      2.00000
     59      -9.8203      2.00000
     60      -9.6542      2.00000
     61      -9.6077      2.00000
     62      -9.5606      2.00000
     63      -9.5270      2.00000
     64      -9.3709      2.00000
     65      -9.3409      2.00000
     66      -9.2608      2.00000
     67      -9.1760      2.00000
     68      -9.1003      2.00000
     69      -9.0834      2.00000
     70      -8.8647      2.00000
     71      -8.7128      2.00000
     72      -8.6653      2.00000
     73      -8.5055      2.00000
     74      -8.4029      2.00000
     75      -8.2860      2.00000
     76      -8.1334      2.00000
     77      -8.0948      2.00000
     78      -8.0658      2.00000
     79      -7.9720      2.00000
     80      -7.8093      2.00000
     81      -7.6205      2.00000
     82      -7.3600      2.00000
     83      -7.3353      2.00000
     84      -7.2671      2.00000
     85      -7.1961      2.00000
     86      -6.9212      2.00000
     87      -6.8734      2.00000
     88      -6.6925      2.00000
     89      -6.5919      2.00000
     90      -6.3485      2.00000
     91      -6.1857      2.00000
     92      -6.0728      2.00000
     93      -5.9219      2.00000
     94      -5.7386      2.00000
     95      -5.6410      2.00000
     96      -5.3226      2.00000
     97      -5.1144      2.00000
     98      -4.9709      2.00000
     99      -4.9234      2.00000
    100      -4.2694      2.00000
    101      -4.1701      2.00000
    102      -3.3386      2.00000
    103      -3.1418      1.99954
    104      -2.8016      0.00000
    105      -1.5926      0.00000
    106      -1.4248      0.00000
    107      -0.8408      0.00000
    108      -0.8202      0.00000
    109      -0.7069      0.00000
    110      -0.6690      0.00000
    111      -0.1289      0.00000
    112      -0.0092      0.00000
    113       0.2923      0.00000
    114       0.7067      0.00000
    115       0.7259      0.00000
    116       1.1003      0.00000
    117       1.1766      0.00000
    118       1.3623      0.00000
    119       1.4678      0.00000
    120       1.5401      0.00000
    121       1.5722      0.00000
    122       1.6402      0.00000
    123       1.8169      0.00000
    124       1.9195      0.00000
    125       2.0371      0.00000
    126       2.2201      0.00000
    127       2.2590      0.00000
    128       2.3341      0.00000
    129       2.3454      0.00000
    130       2.3999      0.00000
    131       2.4641      0.00000
    132       2.7985      0.00000

 k-point     3 :       0.0000    0.3333    0.0000
  band No.  band energies     occupation 
      1     -31.7105      2.00000
      2     -22.1896      2.00000
      3     -21.8697      2.00000
      4     -21.6617      2.00000
      5     -21.4547      2.00000
      6     -21.0352      2.00000
      7     -20.8961      2.00000
      8     -20.7261      2.00000
      9     -20.4206      2.00000
     10     -20.1628      2.00000
     11     -19.7857      2.00000
     12     -19.6982      2.00000
     13     -19.3272      2.00000
     14     -19.2434      2.00000
     15     -19.0593      2.00000
     16     -18.5933      2.00000
     17     -18.4566      2.00000
     18     -18.1215      2.00000
     19     -18.0598      2.00000
     20     -17.5902      2.00000
     21     -17.4979      2.00000
     22     -17.3013      2.00000
     23     -17.2771      2.00000
     24     -16.8518      2.00000
     25     -16.6569      2.00000
     26     -16.1771      2.00000
     27     -15.9736      2.00000
     28     -15.8467      2.00000
     29     -15.2992      2.00000
     30     -15.1662      2.00000
     31     -15.1345      2.00000
     32     -14.8849      2.00000
     33     -14.7823      2.00000
     34     -14.4785      2.00000
     35     -14.4567      2.00000
     36     -13.7627      2.00000
     37     -13.7590      2.00000
     38     -13.1947      2.00000
     39     -13.0896      2.00000
     40     -12.9339      2.00000
     41     -12.9047      2.00000
     42     -12.5857      2.00000
     43     -12.5493      2.00000
     44     -12.3893      2.00000
     45     -12.0211      2.00000
     46     -11.6617      2.00000
     47     -11.4452      2.00000
     48     -11.2968      2.00000
     49     -11.1203      2.00000
     50     -10.9115      2.00000
     51     -10.8501      2.00000
     52     -10.5847      2.00000
     53     -10.5330      2.00000
     54     -10.2828      2.00000
     55     -10.2372      2.00000
     56     -10.1618      2.00000
     57     -10.0485      2.00000
     58      -9.8539      2.00000
     59      -9.8204      2.00000
     60      -9.6538      2.00000
     61      -9.6082      2.00000
     62      -9.5610      2.00000
     63      -9.5270      2.00000
     64      -9.3714      2.00000
     65      -9.3416      2.00000
     66      -9.2598      2.00000
     67      -9.1758      2.00000
     68      -9.1000      2.00000
     69      -9.0829      2.00000
     70      -8.8653      2.00000
     71      -8.7142      2.00000
     72      -8.6647      2.00000
     73      -8.5036      2.00000
     74      -8.4022      2.00000
     75      -8.2876      2.00000
     76      -8.1327      2.00000
     77      -8.0939      2.00000
     78      -8.0671      2.00000
     79      -7.9721      2.00000
     80      -7.8093      2.00000
     81      -7.6196      2.00000
     82      -7.3597      2.00000
     83      -7.3367      2.00000
     84      -7.2670      2.00000
     85      -7.1970      2.00000
     86      -6.9210      2.00000
     87      -6.8745      2.00000
     88      -6.6911      2.00000
     89      -6.5888      2.00000
     90      -6.3486      2.00000
     91      -6.1855      2.00000
     92      -6.0744      2.00000
     93      -5.9226      2.00000
     94      -5.7401      2.00000
     95      -5.6384      2.00000
     96      -5.3239      2.00000
     97      -5.1153      2.00000
     98      -4.9706      2.00000
     99      -4.9234      2.00000
    100      -4.2721      2.00000
    101      -4.1672      2.00000
    102      -3.3388      2.00000
    103      -3.1325      1.99879
    104      -2.8122      0.00000
    105      -1.5914      0.00000
    106      -1.4242      0.00000
    107      -0.8407      0.00000
    108      -0.8196      0.00000
    109      -0.7066      0.00000
    110      -0.6681      0.00000
    111      -0.1337      0.00000
    112      -0.0052      0.00000
    113       0.2919      0.00000
    114       0.7066      0.00000
    115       0.7266      0.00000
    116       1.0969      0.00000
    117       1.1758      0.00000
    118       1.3650      0.00000
    119       1.4687      0.00000
    120       1.5397      0.00000
    121       1.5723      0.00000
    122       1.6414      0.00000
    123       1.8182      0.00000
    124       1.9209      0.00000
    125       2.0419      0.00000
    126       2.2271      0.00000
    127       2.2684      0.00000
    128       2.3420      0.00000
    129       2.4322      0.00000
    130       2.7493      0.00000
    131       3.2585      0.00000
    132       3.6014      0.00000

 k-point     4 :      -0.3333    0.3333    0.0000
  band No.  band energies     occupation 
      1     -31.7106      2.00000
      2     -22.0811      2.00000
      3     -22.0081      2.00000
      4     -21.8021      2.00000
      5     -21.1714      2.00000
      6     -21.1503      2.00000
      7     -20.8681      2.00000
      8     -20.4110      2.00000
      9     -20.3373      2.00000
     10     -20.1727      2.00000
     11     -20.1513      2.00000
     12     -20.1438      2.00000
     13     -19.5675      2.00000
     14     -18.8223      2.00000
     15     -18.6711      2.00000
     16     -18.3731      2.00000
     17     -18.3498      2.00000
     18     -18.3372      2.00000
     19     -17.9308      2.00000
     20     -17.7995      2.00000
     21     -17.6010      2.00000
     22     -17.2627      2.00000
     23     -17.1531      2.00000
     24     -17.1201      2.00000
     25     -16.5448      2.00000
     26     -16.4342      2.00000
     27     -16.2822      2.00000
     28     -15.8097      2.00000
     29     -15.6282      2.00000
     30     -15.1771      2.00000
     31     -14.9636      2.00000
     32     -14.6493      2.00000
     33     -13.9603      2.00000
     34     -13.9399      2.00000
     35     -13.9251      2.00000
     36     -13.8738      2.00000
     37     -13.8645      2.00000
     38     -13.7928      2.00000
     39     -13.6736      2.00000
     40     -13.4953      2.00000
     41     -13.0345      2.00000
     42     -12.4725      2.00000
     43     -12.2542      2.00000
     44     -12.0715      2.00000
     45     -11.8231      2.00000
     46     -11.7686      2.00000
     47     -11.5635      2.00000
     48     -11.5460      2.00000
     49     -11.5234      2.00000
     50     -10.9283      2.00000
     51     -10.8164      2.00000
     52     -10.5254      2.00000
     53     -10.2069      2.00000
     54     -10.2045      2.00000
     55     -10.1949      2.00000
     56     -10.0956      2.00000
     57     -10.0498      2.00000
     58     -10.0225      2.00000
     59      -9.9033      2.00000
     60      -9.7522      2.00000
     61      -9.7484      2.00000
     62      -9.5646      2.00000
     63      -9.4414      2.00000
     64      -9.4078      2.00000
     65      -9.1993      2.00000
     66      -9.0466      2.00000
     67      -9.0344      2.00000
     68      -8.9017      2.00000
     69      -8.8840      2.00000
     70      -8.6876      2.00000
     71      -8.6376      2.00000
     72      -8.6357      2.00000
     73      -8.6246      2.00000
     74      -8.5850      2.00000
     75      -8.3750      2.00000
     76      -8.2523      2.00000
     77      -8.1654      2.00000
     78      -8.0332      2.00000
     79      -7.9829      2.00000
     80      -7.8804      2.00000
     81      -7.8589      2.00000
     82      -7.8555      2.00000
     83      -7.2244      2.00000
     84      -7.1833      2.00000
     85      -7.1277      2.00000
     86      -6.8878      2.00000
     87      -6.7220      2.00000
     88      -6.6130      2.00000
     89      -6.4610      2.00000
     90      -6.2650      2.00000
     91      -6.1010      2.00000
     92      -5.9172      2.00000
     93      -5.9121      2.00000
     94      -5.8986      2.00000
     95      -5.4508      2.00000
     96      -5.4260      2.00000
     97      -5.1224      2.00000
     98      -5.0150      2.00000
     99      -4.9812      2.00000
    100      -4.9586      2.00000
    101      -3.7335      2.00000
    102      -3.4593      2.00000
    103      -3.2821      2.00000
    104      -2.3894      0.00000
    105      -2.2248      0.00000
    106      -0.9295      0.00000
    107      -0.8829      0.00000
    108      -0.8684      0.00000
    109      -0.5393      0.00000
    110      -0.2657      0.00000
    111      -0.2114      0.00000
    112       0.2514      0.00000
    113       0.2574      0.00000
    114       0.2597      0.00000
    115       0.5965      0.00000
    116       0.7890      0.00000
    117       0.9490      0.00000
    118       0.9752      0.00000
    119       1.0661      0.00000
    120       1.7427      0.00000
    121       1.7472      0.00000
    122       1.7705      0.00000
    123       1.8358      0.00000
    124       2.1014      0.00000
    125       2.1057      0.00000
    126       2.1216      0.00000
    127       2.2486      0.00000
    128       2.2505      0.00000
    129       2.3665      0.00000
    130       2.9995      0.00000
    131       3.0130      0.00000
    132       3.0356      0.00000


--------------------------------------------------------------------------------------------------------


 soft charge-density along one line, spin component           1
         0         1         2         3         4         5         6         7         8         9
 total charge-density along one line
 
 pseudopotential strength for first ion, spin component:           1
 10.222  13.594   0.000  -0.000   0.000  -0.000   0.000  -0.000
 13.594  18.077   0.000  -0.000   0.000  -0.000   0.000  -0.000
  0.000   0.000  -4.352  -0.000  -0.000   8.513   0.000   0.000
 -0.000  -0.000  -0.000  -4.344  -0.000   0.000   8.502   0.000
  0.000   0.000  -0.000  -0.000  -4.352   0.000   0.000   8.513
 -0.000  -0.000   8.513   0.000   0.000 -18.787  -0.000  -0.000
  0.000   0.000   0.000   8.502   0.000  -0.000 -18.776  -0.000
 -0.000  -0.000   0.000   0.000   8.513  -0.000  -0.000 -18.787
 total augmentation occupancy for first ion, spin component:           1
  8.358  -3.740   0.001   0.000   0.003   0.000   0.000   0.001
 -3.740   1.730  -0.002  -0.000  -0.003  -0.000   0.000  -0.000
  0.001  -0.002   1.840  -0.000  -0.001   0.174  -0.000   0.000
  0.000  -0.000  -0.000   1.223  -0.000   0.000   0.078   0.000
  0.003  -0.003  -0.001  -0.000   1.839   0.000   0.000   0.174
  0.000  -0.000   0.174   0.000   0.000   0.018   0.000   0.000
  0.000   0.000  -0.000   0.078   0.000   0.000   0.005   0.000
  0.001  -0.000   0.000   0.000   0.174   0.000   0.000   0.018


------------------------ aborting loop because EDIFF is reached ----------------------------------------


    CHARGE:  cpu time    0.3287: real time    0.3291
    FORLOC:  cpu time    0.0303: real time    0.0303
    FORNL :  cpu time    1.6630: real time    1.6636
    STRESS:  cpu time    2.9617: real time    2.9630
    FORCOR:  cpu time    0.1187: real time    0.1191
    FORHAR:  cpu time    0.0496: real time    0.0500
    MIXING:  cpu time    0.0036: real time    0.0036
    OFIELD:  cpu time    0.0001: real time    0.0001

  FORCE on cell =-STRESS in cart. coord.  units (eV):
  Direction    XX          YY          ZZ          XY          YZ          ZX
  --------------------------------------------------------------------------------------
  Alpha Z    82.54348    82.54348    82.54348
  Ewald   41234.44610 41233.12026-47951.73578     0.00195    -0.01485    -0.00002
  Hartree 40516.42933 40516.00916-39998.18118     0.00002     0.16854     0.00000
  E(xc)    -777.14646  -777.15083  -804.22453     0.00001    -0.00274     0.00000
  Local  -83988.43180-83987.01308 85336.38333    -0.00050    -0.21912     0.00001
  n-local  -203.90124  -203.95828  -194.64735    -0.21766    -0.01743     0.20722
  augment   -12.39001   -12.36179   -14.04733    -0.00049     0.00249     0.00000
  Kinetic  3163.86306  3164.46861  3596.11909     3.28735     0.21535    -1.75314
  Fock        0.00000     0.00000     0.00000     0.00000     0.00000     0.00000
  -------------------------------------------------------------------------------------
  Total      15.41248    15.65753    52.20974     0.00000     0.13225     0.00000
  in kB       9.42350     9.57333    31.92208     0.00000     0.08086     0.00000
  external pressure =       16.97 kB  Pullay stress =        0.00 kB


 VOLUME and BASIS-vectors are now :
 -----------------------------------------------------------------------------
  energy-cutoff  :      400.00
  volume of cell :     2620.42
      direct lattice vectors                 reciprocal lattice vectors
    12.300000191  0.000000000  0.000000000     0.081300812 -0.046939053  0.000000000
     6.150000804 10.652112223  0.000000000     0.000000000  0.093878095  0.000000000
     0.000000000  0.000000000 20.000000000     0.000000000  0.000000000  0.050000000

  length of vectors
    12.300000191 12.300000191 20.000000000     0.093878095  0.093878095  0.050000000


 FORCES acting on ions
    electron-ion (+dipol)            ewald-force                    non-local-force                 convergence-correction
 -----------------------------------------------------------------------------------------------
   -.148E+01 -.856E+00 0.277E+01   0.135E+01 0.778E+00 -.276E+01   0.842E-01 0.515E-01 -.557E-03   -.591E-03 0.800E-03 -.210E-04
   0.148E+01 -.856E+00 0.277E+01   -.135E+01 0.778E+00 -.276E+01   -.842E-01 0.515E-01 -.557E-03   0.602E-03 0.800E-03 -.210E-04
   0.370E+01 0.642E+01 0.377E+01   -.374E+01 -.649E+01 -.372E+01   -.115E+00 0.768E-01 -.686E-01   0.115E-03 0.648E-03 -.249E-03
   -.376E-05 0.129E+02 0.470E+01   -.525E-04 -.131E+02 -.484E+01   0.951E-09 0.143E-01 0.106E+00   0.560E-05 0.315E-03 -.582E-03
   -.370E+01 0.642E+01 0.377E+01   0.374E+01 -.649E+01 -.372E+01   0.115E+00 0.768E-01 -.686E-01   -.104E-03 0.649E-03 -.249E-03
   -.564E-05 0.171E+01 0.277E+01   -.505E-04 -.156E+01 -.276E+01   -.659E-08 -.989E-01 -.650E-04   0.558E-05 -.467E-05 -.606E-04
   0.117E+02 0.673E+01 0.484E+01   -.113E+02 -.655E+01 -.489E+01   0.108E+00 0.617E-01 0.550E-01   0.351E-03 0.259E-03 -.602E-03
   0.209E+02 0.363E+02 0.179E+02   -.214E+02 -.371E+02 -.182E+02   0.633E+00 0.643E+00 0.438E+00   -.289E-03 0.448E-03 -.299E-02
   -.209E+02 0.363E+02 0.179E+02   0.214E+02 -.371E+02 -.182E+02   -.633E+00 0.643E+00 0.438E+00   0.300E-03 0.448E-03 -.299E-02
   -.117E+02 0.673E+01 0.484E+01   0.113E+02 -.655E+01 -.489E+01   -.108E+00 0.617E-01 0.550E-01   -.340E-03 0.259E-03 -.602E-03
   0.741E+01 -.846E-02 0.379E+01   -.749E+01 -.125E-03 -.374E+01   0.962E-02 -.138E+00 -.710E-01   0.878E-03 0.188E-03 -.420E-03
   0.418E+02 -.533E-01 0.185E+02   -.428E+02 -.367E-03 -.189E+02   0.883E+00 0.221E+00 0.543E+00   0.144E-03 0.977E-04 -.137E-02
   -.530E-05 -.374E-01 0.290E+03   -.512E-04 -.831E-02 -.345E+03   0.494E-09 0.742E-02 0.706E+01   0.578E-05 -.650E-03 -.684E-03
   -.418E+02 -.533E-01 0.185E+02   0.428E+02 -.367E-03 -.189E+02   -.883E+00 0.221E+00 0.543E+00   -.133E-03 0.977E-04 -.137E-02
   -.741E+01 -.847E-02 0.379E+01   0.749E+01 -.125E-03 -.374E+01   -.962E-02 -.138E+00 -.710E-01   -.867E-03 0.188E-03 -.420E-03
   0.111E+02 -.643E+01 0.478E+01   -.113E+02 0.655E+01 -.492E+01   0.997E-02 -.687E-02 0.111E+00   0.690E-03 -.557E-03 -.448E-03
   0.210E+02 -.362E+02 0.186E+02   -.214E+02 0.371E+02 -.190E+02   0.245E+00 -.874E+00 0.541E+00   -.623E-03 0.213E-03 -.298E-03
   -.210E+02 -.362E+02 0.186E+02   0.214E+02 0.371E+02 -.190E+02   -.245E+00 -.874E+00 0.541E+00   0.634E-03 0.213E-03 -.298E-03
   -.111E+02 -.643E+01 0.478E+01   0.113E+02 0.655E+01 -.492E+01   -.997E-02 -.687E-02 0.111E+00   -.679E-03 -.557E-03 -.447E-03
   -.427E-05 -.148E+01 0.280E+01   -.519E-04 0.156E+01 -.277E+01   -.579E-08 -.869E-01 -.148E-01   0.559E-05 -.676E-03 -.117E-03
   0.371E+01 -.641E+01 0.379E+01   -.374E+01 0.649E+01 -.374E+01   0.123E+00 0.609E-01 -.711E-01   0.567E-04 -.767E-03 -.246E-04
   -.616E-05 -.135E+02 0.487E+01   -.500E-04 0.131E+02 -.492E+01   -.809E-08 -.122E+00 0.527E-01   0.559E-05 -.772E-03 -.636E-04
   -.371E+01 -.641E+01 0.379E+01   0.374E+01 0.649E+01 -.374E+01   -.123E+00 0.609E-01 -.711E-01   -.455E-04 -.767E-03 -.246E-04
   -.128E+01 0.742E+00 0.279E+01   0.135E+01 -.778E+00 -.276E+01   -.729E-01 0.452E-01 -.146E-01   -.266E-03 0.650E-03 0.404E-04
   0.128E+01 0.742E+00 0.279E+01   -.135E+01 -.778E+00 -.276E+01   0.729E-01 0.452E-01 -.146E-01   0.277E-03 0.650E-03 0.404E-04
   0.728E-04 0.256E-02 0.248E+01   0.528E-04 0.122E-03 -.248E+01   0.384E-10 0.577E-03 -.103E-01   -.104E-04 0.219E-03 -.888E-05
   0.531E+01 0.407E+01 0.337E+01   -.514E+01 -.429E+01 -.334E+01   -.723E-01 0.409E-02 -.231E-01   0.333E-03 0.523E-03 -.370E-03
   0.607E+01 0.171E+02 0.671E+01   -.581E+01 -.171E+02 -.634E+01   -.653E-01 0.154E+00 -.106E+00   -.196E-03 -.454E-03 -.975E-03
   -.607E+01 0.171E+02 0.671E+01   0.581E+01 -.171E+02 -.634E+01   0.653E-01 0.154E+00 -.106E+00   0.175E-03 -.454E-03 -.975E-03
   -.531E+01 0.407E+01 0.337E+01   0.514E+01 -.429E+01 -.334E+01   0.723E-01 0.409E-02 -.231E-01   -.354E-03 0.523E-03 -.370E-03
   0.618E+01 0.256E+01 0.338E+01   -.629E+01 -.230E+01 -.335E+01   -.325E-01 -.632E-01 -.241E-01   0.113E-02 0.320E-03 -.278E-03
   0.283E+02 0.164E+02 0.125E+02   -.286E+02 -.165E+02 -.130E+02   -.165E+00 -.877E-01 0.154E+00   -.483E-03 0.111E-03 -.142E-02
   0.103E-03 0.870E+02 0.635E+02   0.214E-04 -.913E+02 -.710E+02   -.587E-07 -.882E+00 0.330E+01   -.105E-04 0.118E-02 -.598E-02
   -.283E+02 0.164E+02 0.125E+02   0.286E+02 -.165E+02 -.130E+02   0.165E+00 -.877E-01 0.154E+00   0.463E-03 0.111E-03 -.142E-02
   -.618E+01 0.256E+01 0.338E+01   0.629E+01 -.230E+01 -.335E+01   0.325E-01 -.632E-01 -.241E-01   -.115E-02 0.320E-03 -.278E-03
   0.179E+02 -.331E+01 0.684E+01   -.177E+02 0.349E+01 -.646E+01   0.106E+00 -.139E+00 -.122E+00   -.735E-04 -.736E-03 -.713E-03
   0.760E+02 -.439E+02 0.585E+02   -.799E+02 0.461E+02 -.661E+02   -.535E+00 0.314E+00 0.335E+01   -.333E-03 -.106E-02 -.628E-03
   -.760E+02 -.439E+02 0.585E+02   0.799E+02 0.461E+02 -.661E+02   0.535E+00 0.314E+00 0.335E+01   0.312E-03 -.106E-02 -.628E-03
   -.179E+02 -.331E+01 0.684E+01   0.177E+02 0.349E+01 -.646E+01   -.106E+00 -.139E+00 -.122E+00   0.527E-04 -.736E-03 -.713E-03
   0.729E-04 -.605E+00 0.292E+01   0.529E-04 0.845E+00 -.289E+01   -.103E-07 -.155E+00 -.531E-01   -.104E-04 -.616E-03 -.452E-03
   0.118E+02 -.138E+02 0.685E+01   -.119E+02 0.136E+02 -.647E+01   0.174E+00 -.230E-01 -.124E+00   0.490E-03 -.111E-03 -.178E-03
   0.763E-04 -.327E+02 0.126E+02   0.493E-04 0.330E+02 -.131E+02   0.121E-07 0.182E+00 0.149E+00   -.104E-04 0.252E-03 -.329E-03
   -.118E+02 -.138E+02 0.685E+01   0.119E+02 0.136E+02 -.647E+01   -.174E+00 -.230E-01 -.124E+00   -.511E-03 -.111E-03 -.178E-03
   -.385E+01 -.222E+01 0.281E+01   0.378E+01 0.218E+01 -.285E+01   -.193E-01 -.108E-01 0.134E-01   -.436E-03 -.108E-02 -.756E-04
   0.385E+01 -.222E+01 0.281E+01   -.378E+01 0.218E+01 -.285E+01   0.193E-01 -.108E-01 0.134E-01   0.415E-03 -.108E-02 -.756E-04
   0.876E+00 -.664E+01 0.339E+01   -.115E+01 0.660E+01 -.336E+01   0.379E-01 0.612E-01 -.243E-01   -.839E-04 -.756E-03 0.201E-04
   -.876E+00 -.664E+01 0.339E+01   0.115E+01 0.660E+01 -.336E+01   -.379E-01 0.612E-01 -.243E-01   0.631E-04 -.756E-03 0.201E-04
   -.528E+00 0.305E+00 0.291E+01   0.732E+00 -.422E+00 -.288E+01   -.133E+00 0.767E-01 -.526E-01   -.718E-03 0.559E-03 0.158E-04
   0.753E-04 0.443E+01 0.279E+01   0.503E-04 -.437E+01 -.283E+01   0.148E-08 0.222E-01 0.121E-01   -.103E-04 0.146E-02 -.889E-04
   0.528E+00 0.305E+00 0.291E+01   -.732E+00 -.422E+00 -.288E+01   0.133E+00 0.767E-01 -.526E-01   0.697E-03 0.559E-03 0.158E-04
   -.272E-05 0.607E+00 -.723E+03   -.192E-04 -.928E+00 0.846E+03   0.265E-07 0.398E+00 -.638E+02   0.744E-05 0.300E-02 -.663E-02
 -----------------------------------------------------------------------------------------------
   0.172E-02 -.138E+00 0.443E+02   0.356E-13 0.774E-13 -.796E-12   0.900E-08 0.135E+00 -.442E+02   -.113E-03 0.229E-02 -.370E-01
 
 
 POSITION                                       TOTAL-FORCE (eV/Angst)
 -----------------------------------------------------------------------------------
      0.00000      0.00000      8.35995        -0.049682     -0.025852      0.008789
      2.46000      0.00000      8.35995         0.049682     -0.025852      0.008789
      4.92000      0.00000      8.35995        -0.155302      0.013079     -0.020786
      7.38000      0.00000      8.35995        -0.000000     -0.196022     -0.030370
      9.84000      0.00000      8.35995         0.155302      0.013079     -0.020786
      1.23000      2.13042      8.35995         0.000000      0.053606      0.009347
      3.69000      2.13042      8.35995         0.430595      0.250552      0.003845
      6.15000      2.13042      8.35995         0.142093     -0.195556      0.105410
      8.61000      2.13042      8.35995        -0.142093     -0.195556      0.105410
     11.07000      2.13042      8.35995        -0.430595      0.250552      0.003845
      2.46000      4.26084      8.35995        -0.066281     -0.146629     -0.026188
      4.92000      4.26084      8.35995        -0.137584      0.167797      0.164766
      7.38000      4.26084      8.35995        -0.000000     -0.038927    -48.107764
      9.84000      4.26084      8.35995         0.137584      0.167797      0.164766
     12.30000      4.26084      8.35995         0.066281     -0.146629     -0.026188
      3.69000      6.39127      8.35995        -0.184887      0.103607     -0.026736
      6.15000      6.39127      8.35995        -0.224690      0.032105      0.166764
      8.61000      6.39127      8.35995         0.224690      0.032105      0.166764
     11.07000      6.39127      8.35995         0.184887      0.103607     -0.026736
     13.53000      6.39127      8.35995        -0.000000     -0.014764      0.017913
      4.92000      8.52169      8.35995         0.092468      0.131649     -0.026666
      7.38000      8.52169      8.35995        -0.000000     -0.490271      0.000461
      9.84000      8.52169      8.35995        -0.092468      0.131649     -0.026666
     12.30000      8.52169      8.35995        -0.008412      0.009493      0.017884
     14.76000      8.52169      8.35995         0.008412      0.009493      0.017884
      1.23000      0.71014      8.36012         0.000000      0.003496     -0.006008
      3.69000      0.71014      8.36012         0.095036     -0.218614      0.009710
      6.15000      0.71014      8.36012         0.194502      0.240737      0.260172
      8.61000      0.71014      8.36012        -0.194502      0.240737      0.260172
     11.07000      0.71014      8.36012        -0.095036     -0.218614      0.009710
      2.46000      2.84056      8.36012        -0.140263      0.193834      0.010107
      4.92000      2.84056      8.36012        -0.456078     -0.236215     -0.350615
      7.38000      2.84056      8.35012        -0.000000     -5.141446     -4.281967
      9.84000      2.84056      8.36012         0.456078     -0.236215     -0.350615
     12.30000      2.84056      8.36012         0.140263      0.193834      0.010107
      3.69000      4.97099      8.36012         0.314104      0.043821      0.256114
      6.15000      4.97099      8.36012        -4.363367      2.534612     -4.317757
      8.61000      4.97099      8.36012         4.363367      2.534612     -4.317757
     11.07000      4.97099      8.36012        -0.314104      0.043821      0.256114
     13.53000      4.97099      8.36012         0.000000      0.084533     -0.021550
      4.92000      7.10141      8.36012         0.125645     -0.294917      0.256344
      7.38000      7.10141      8.36012         0.000000      0.506053     -0.356386
      9.84000      7.10141      8.36012        -0.125645     -0.294917      0.256344
     12.30000      7.10141      8.36012        -0.085627     -0.051215     -0.026346
     14.76000      7.10141      8.36012         0.085627     -0.051215     -0.026346
      6.15000      9.23183      8.36012        -0.234908      0.022215      0.010176
      8.61000      9.23183      8.36012         0.234908      0.022215      0.010176
     11.07000      9.23183      8.36012         0.069995     -0.040036     -0.022067
     13.53000      9.23183      8.36012         0.000000      0.083912     -0.027021
     15.99000      9.23183      8.36012        -0.069995     -0.040036     -0.022067
      7.38000      4.26084      9.36012         0.000000      0.080899     59.897507
 -----------------------------------------------------------------------------------
    total drift:                                0.001605     -0.000863     -0.000653


--------------------------------------------------------------------------------------------------------



  FREE ENERGIE OF THE ION-ELECTRON SYSTEM (eV)
  ---------------------------------------------------
  free  energy   TOTEN  =      -454.38371332 eV

  energy  without entropy=     -454.38360019  energy(sigma->0) =     -454.38365676
 


--------------------------------------------------------------------------------------------------------


    POTLOK:  cpu time    0.1769: real time    0.1770


--------------------------------------------------------------------------------------------------------


 stress matrix after NEB project (eV)
     15.41248      0.00000      0.00000
      0.00000     15.65753      0.13225
      0.00000      0.13225     52.20974
  FORCES: max atom, RMS    59.897562   10.881791
  FORCE total and by dimension   77.711534   59.897507
  Stress total and by dimension   56.644456   52.209737
     LOOP+:  cpu time   28.8675: real time   28.9014
    4ORBIT:  cpu time    0.0000: real time    0.0000

 total amount of memory used by VASP MPI-rank0    87233. kBytes
=======================================================================

   base      :      30000. kBytes
   nonl-proj :       7912. kBytes
   fftplans  :      26248. kBytes
   grid      :      14579. kBytes
   one-center:         21. kBytes
   wavefun   :       8473. kBytes
 
  
  
 General timing and accounting informations for this job:
 ========================================================
  
                  Total CPU time used (sec):       36.290
                            User time (sec):       33.776
                          System time (sec):        2.515
                         Elapsed time (sec):       36.362
  
                   Maximum memory used (kb):      366736.
                   Average memory used (kb):           0.
  
                          Minor page faults:        95687
                          Major page faults:            0
                 Voluntary context switches:         1021
