<?xml version="1.0" encoding="ISO-8859-1"?>
<modeling>
 <generator>
  <i name="program" type="string">vasp </i>
  <i name="version" type="string">5.4.4.18Apr17-6-g9f103f2a35  </i>
  <i name="subversion" type="string">(build Aug 13 2022 23:40:43) complex            parallel </i>
  <i name="platform" type="string">LinuxIFC </i>
  <i name="date" type="string">2024 11 10 </i>
  <i name="time" type="string">03:58:45 </i>
 </generator>
 <incar>
  <i type="int" name="ISTART">     1</i>
  <i type="string" name="PREC">accurate</i>
  <i type="string" name="ALGO"> F          N:DAV,fine,slow</i>
  <i type="logical" name="ADDGRID"> T  </i>
  <i type="int" name="ISPIN">     1</i>
  <i type="int" name="ICHARG">     1</i>
  <i type="int" name="NELM">   300</i>
  <i type="int" name="IBRION">    -1</i>
  <i name="EDIFF">      0.00001000</i>
  <i name="EDIFFG">     -0.00100000</i>
  <i type="int" name="NSW">     1</i>
  <i type="int" name="ISIF">     2</i>
  <i name="ENCUT">    400.00000000</i>
  <i type="logical" name="LREAL"> F  </i>
  <i type="int" name="ISMEAR">     0</i>
  <i name="SIGMA">      0.05000000</i>
  <i type="logical" name="LWAVE"> F  </i>
  <i type="logical" name="LCHARG"> F  </i>
  <v type="int" name="KPOINT_BSE">    -1     0     0     0</v>
  <i type="int" name="NELM">   300</i>
 </incar>
 <structure name="primitive_cell" >
  <crystal>
   <varray name="basis" >
    <v>      12.30000019       0.00000000       0.00000000 </v>
    <v>       6.15000080      10.65211222       0.00000000 </v>
    <v>       0.00000000       0.00000000      20.00000000 </v>
   </varray>
   <i name="volume">   2620.41964732 </i>
   <varray name="rec_basis" >
    <v>       0.08130081      -0.04693905       0.00000000 </v>
    <v>       0.00000000       0.09387809       0.00000000 </v>
    <v>       0.00000000       0.00000000       0.05000000 </v>
   </varray>
  </crystal>
  <varray name="positions" >
   <v>       0.00000000       0.00000000       0.41799748 </v>
   <v>       0.06666667       0.06666660       0.41800609 </v>
   <v>      -0.13333333       0.06666660       0.41800609 </v>
   <v>       0.06666667      -0.13333340       0.41800609 </v>
   <v>      -0.20000000       0.20000000       0.41799748 </v>
   <v>       0.20000000      -0.20000000       0.41799748 </v>
   <v>       0.20000000       0.00000000       0.41799748 </v>
   <v>      -0.20000000       0.00000000       0.41799748 </v>
   <v>       0.00000000       0.20000000       0.41799748 </v>
   <v>       0.00000000      -0.20000000       0.41799748 </v>
   <v>      -0.13333333       0.26666660       0.41800609 </v>
   <v>       0.26666667      -0.13333340       0.41800609 </v>
   <v>      -0.13333333      -0.13333340       0.41800609 </v>
   <v>       0.06666667       0.26666660       0.41800609 </v>
   <v>      -0.33333333       0.26666660       0.41800609 </v>
   <v>       0.26666667       0.06666660       0.41800609 </v>
   <v>      -0.33333333       0.06666660       0.41800609 </v>
   <v>       0.26666667      -0.33333340       0.41800609 </v>
   <v>       0.06666667      -0.33333340       0.41800609 </v>
   <v>      -0.40000000       0.20000000       0.41799748 </v>
   <v>       0.40000000      -0.20000000       0.41799748 </v>
   <v>      -0.20000000       0.40000000       0.41799748 </v>
   <v>       0.20000000      -0.40000000       0.41799748 </v>
   <v>       0.20000000       0.20000000       0.41799748 </v>
   <v>      -0.20000000      -0.20000000       0.41799748 </v>
   <v>      -0.40000000       0.40000000       0.41799748 </v>
   <v>       0.40000000      -0.40000000       0.41799748 </v>
   <v>       0.40000000       0.00000000       0.41799748 </v>
   <v>      -0.40000000       0.00000000       0.41799748 </v>
   <v>       0.00000000       0.40000000       0.41799748 </v>
   <v>       0.00000000      -0.40000000       0.41799748 </v>
   <v>      -0.13333333       0.46666660       0.41800609 </v>
   <v>      -0.33333333       0.46666660       0.41800609 </v>
   <v>       0.46666667      -0.13333340       0.41800609 </v>
   <v>       0.46666667      -0.33333340       0.41800609 </v>
   <v>      -0.33333333      -0.13333340       0.41800609 </v>
   <v>      -0.13333333      -0.33333340       0.41800609 </v>
   <v>       0.26666667       0.26666660       0.41800609 </v>
   <v>       0.46666667       0.26666660       0.41800609 </v>
   <v>       0.26666667       0.46666660       0.41800609 </v>
   <v>       0.06666667       0.46666660       0.41800609 </v>
   <v>       0.46666667       0.46666660       0.41800609 </v>
   <v>       0.46666667       0.06666660       0.41800609 </v>
   <v>       0.40000000       0.40000000       0.41799748 </v>
   <v>      -0.40000000      -0.40000000       0.41799748 </v>
   <v>      -0.40000000      -0.20000000       0.41799748 </v>
   <v>       0.20000000       0.40000000       0.41799748 </v>
   <v>      -0.20000000      -0.40000000       0.41799748 </v>
   <v>       0.40000000       0.20000000       0.41749748 </v>
   <v>       0.40000000       0.40000000       0.46800609 </v>
   <v>      -0.33333333      -0.33333340       0.41800609 </v>
  </varray>
 </structure>
 <varray name="primitive_index" >
  <v type="int" >        1 </v>
  <v type="int" >       26 </v>
  <v type="int" >       30 </v>
  <v type="int" >       46 </v>
  <v type="int" >       10 </v>
  <v type="int" >       22 </v>
  <v type="int" >        2 </v>
  <v type="int" >        5 </v>
  <v type="int" >        6 </v>
  <v type="int" >       21 </v>
  <v type="int" >       35 </v>
  <v type="int" >       47 </v>
  <v type="int" >       50 </v>
  <v type="int" >       31 </v>
  <v type="int" >       34 </v>
  <v type="int" >       27 </v>
  <v type="int" >       29 </v>
  <v type="int" >       42 </v>
  <v type="int" >       41 </v>
  <v type="int" >        9 </v>
  <v type="int" >       23 </v>
  <v type="int" >       15 </v>
  <v type="int" >       17 </v>
  <v type="int" >        7 </v>
  <v type="int" >       25 </v>
  <v type="int" >       14 </v>
  <v type="int" >       18 </v>
  <v type="int" >        3 </v>
  <v type="int" >        4 </v>
  <v type="int" >       11 </v>
  <v type="int" >       16 </v>
  <v type="int" >       40 </v>
  <v type="int" >       39 </v>
  <v type="int" >       48 </v>
  <v type="int" >       43 </v>
  <v type="int" >       49 </v>
  <v type="int" >       45 </v>
  <v type="int" >       32 </v>
  <v type="int" >       33 </v>
  <v type="int" >       37 </v>
  <v type="int" >       36 </v>
  <v type="int" >       38 </v>
  <v type="int" >       28 </v>
  <v type="int" >       13 </v>
  <v type="int" >       19 </v>
  <v type="int" >       24 </v>
  <v type="int" >       12 </v>
  <v type="int" >       20 </v>
  <v type="int" >        8 </v>
  <v type="int" >       51 </v>
  <v type="int" >       44 </v>
 </varray>
 <kpoints>
  <generation param="Gamma">
   <v type="int" name="divisions">       3        3        1 </v>
   <v name="usershift">      0.00000000       0.00000000       0.00000000 </v>
   <v name="genvec1">      0.33333333      -0.00000000       0.00000000 </v>
   <v name="genvec2">      0.00000000       0.33333333       0.00000000 </v>
   <v name="genvec3">      0.00000000       0.00000000       1.00000000 </v>
   <v name="shift">      0.00000000       0.00000000       0.00000000 </v>
  </generation>
  <varray name="kpointlist" >
   <v>       0.00000000       0.00000000       0.00000000 </v>
   <v>       0.33333333       0.00000000       0.00000000 </v>
   <v>       0.00000000       0.33333333       0.00000000 </v>
   <v>       0.33333333       0.33333333       0.00000000 </v>
   <v>      -0.33333333       0.33333333       0.00000000 </v>
  </varray>
  <varray name="weights" >
   <v>       0.11111111 </v>
   <v>       0.22222222 </v>
   <v>       0.22222222 </v>
   <v>       0.22222222 </v>
   <v>       0.22222222 </v>
  </varray>
 </kpoints>
 <parameters>
  <separator name="general" >
   <i type="string" name="SYSTEM"></i>
   <i type="logical" name="LCOMPAT"> F  </i>
  </separator>
  <separator name="electronic" >
   <i type="string" name="PREC">accura</i>
   <i name="ENMAX">    400.00000000</i>
   <i name="ENAUG">    644.87300000</i>
   <i name="EDIFF">      0.00001000</i>
   <i type="int" name="IALGO">    68</i>
   <i type="int" name="IWAVPR">    10</i>
   <i type="int" name="NBANDS">   132</i>
   <i name="NELECT">    206.00000000</i>
   <i type="int" name="TURBO">     0</i>
   <i type="int" name="IRESTART">     0</i>
   <i type="int" name="NREBOOT">     0</i>
   <i type="int" name="NMIN">     0</i>
   <i name="EREF">      0.00000000</i>
   <separator name="electronic smearing" >
    <i type="int" name="ISMEAR">     0</i>
    <i name="SIGMA">      0.05000000</i>
    <i name="KSPACING">      0.50000000</i>
    <i type="logical" name="KGAMMA"> T  </i>
   </separator>
   <separator name="electronic projectors" >
    <i type="logical" name="LREAL"> F  </i>
    <v name="ROPT">      0.00000000      0.00000000</v>
    <i type="int" name="LMAXPAW">  -100</i>
    <i type="int" name="LMAXMIX">     2</i>
    <i type="logical" name="NLSPLINE"> F  </i>
   </separator>
   <separator name="electronic startup" >
    <i type="int" name="ISTART">     1</i>
    <i type="int" name="ICHARG">     1</i>
    <i type="int" name="INIWAV">     1</i>
   </separator>
   <separator name="electronic spin" >
    <i type="int" name="ISPIN">     1</i>
    <i type="logical" name="LNONCOLLINEAR"> F  </i>
    <v name="MAGMOM">      1.00000000      1.00000000      1.00000000      1.00000000      1.00000000      1.00000000      1.00000000      1.00000000      1.00000000      1.00000000      1.00000000      1.00000000      1.00000000      1.00000000      1.00000000      1.00000000      1.00000000      1.00000000      1.00000000      1.00000000
      1.00000000      1.00000000      1.00000000      1.00000000      1.00000000      1.00000000      1.00000000      1.00000000      1.00000000      1.00000000      1.00000000      1.00000000      1.00000000      1.00000000      1.00000000      1.00000000      1.00000000      1.00000000      1.00000000      1.00000000
      1.00000000      1.00000000      1.00000000      1.00000000      1.00000000      1.00000000      1.00000000      1.00000000      1.00000000      1.00000000      1.00000000</v>
    <i name="NUPDOWN">     -1.00000000</i>
    <i type="logical" name="LSORBIT"> F  </i>
    <v name="SAXIS">      0.00000000      0.00000000      1.00000000</v>
    <i type="logical" name="LSPIRAL"> F  </i>
    <v name="QSPIRAL">      0.00000000      0.00000000      0.00000000</v>
    <i type="logical" name="LZEROZ"> F  </i>
   </separator>
   <separator name="electronic exchange-correlation" >
    <i type="logical" name="LASPH"> F  </i>
    <i type="logical" name="LMETAGGA"> F  </i>
   </separator>
   <separator name="electronic convergence" >
    <i type="int" name="NELM">   300</i>
    <i type="int" name="NELMDL">     0</i>
    <i type="int" name="NELMIN">     2</i>
    <i name="ENINI">    400.00000000</i>
    <separator name="electronic convergence detail" >
     <i type="logical" name="LDIAG"> T  </i>
     <i type="logical" name="LSUBROT"> F  </i>
     <i name="WEIMIN">      0.00000000</i>
     <i name="EBREAK">      0.00000002</i>
     <i name="DEPER">      0.30000000</i>
     <i type="int" name="NRMM">     4</i>
     <i name="TIME">      0.40000000</i>
    </separator>
   </separator>
   <separator name="electronic mixer" >
    <i name="AMIX">      0.40000000</i>
    <i name="BMIX">      1.00000000</i>
    <i name="AMIN">      0.10000000</i>
    <i name="AMIX_MAG">      1.60000000</i>
    <i name="BMIX_MAG">      1.00000000</i>
    <separator name="electronic mixer details" >
     <i type="int" name="IMIX">     4</i>
     <i type="logical" name="MIXFIRST"> F  </i>
     <i type="int" name="MAXMIX">   -45</i>
     <i name="WC">    100.00000000</i>
     <i type="int" name="INIMIX">     1</i>
     <i type="int" name="MIXPRE">     1</i>
     <i type="int" name="MREMOVE">     5</i>
    </separator>
   </separator>
   <separator name="electronic dipolcorrection" >
    <i type="logical" name="LDIPOL"> F  </i>
    <i type="logical" name="LMONO"> F  </i>
    <i type="int" name="IDIPOL">     0</i>
    <i name="EPSILON">      1.00000000</i>
    <v name="DIPOL">   -100.00000000   -100.00000000   -100.00000000</v>
    <i name="EFIELD">      0.00000000</i>
   </separator>
  </separator>
  <separator name="grids" >
   <i type="int" name="NGX">    80</i>
   <i type="int" name="NGY">    80</i>
   <i type="int" name="NGZ">   140</i>
   <i type="int" name="NGXF">   160</i>
   <i type="int" name="NGYF">   160</i>
   <i type="int" name="NGZF">   280</i>
   <i type="logical" name="ADDGRID"> T  </i>
  </separator>
  <separator name="ionic" >
   <i type="int" name="NSW">     1</i>
   <i type="int" name="IBRION">    -1</i>
   <i type="int" name="MDALGO">     0</i>
   <i type="int" name="ISIF">     2</i>
   <i name="PSTRESS">      0.00000000</i>
   <i name="EDIFFG">     -0.00100000</i>
   <i type="int" name="NFREE">     0</i>
   <i name="POTIM">      0.50000000</i>
   <i name="SMASS">     -3.00000000</i>
   <i name="SCALEE">      1.00000000</i>
  </separator>
  <separator name="ionic md" >
   <i name="TEBEG">      0.00010000</i>
   <i name="TEEND">      0.00010000</i>
   <i type="int" name="NBLOCK">     1</i>
   <i type="int" name="KBLOCK">     1</i>
   <i type="int" name="NPACO">   256</i>
   <i name="APACO">     16.00000000</i>
  </separator>
  <separator name="symmetry" >
   <i type="int" name="ISYM">     2</i>
   <i name="SYMPREC">      0.00001000</i>
  </separator>
  <separator name="dos" >
   <i type="int" name="LORBIT">     0</i>
   <v name="RWIGS">     -1.00000000     -1.00000000</v>
   <i type="int" name="NEDOS">   301</i>
   <i name="EMIN">     10.00000000</i>
   <i name="EMAX">    -10.00000000</i>
   <i name="EFERMI">      0.00000000</i>
  </separator>
  <separator name="writing" >
   <i type="int" name="NWRITE">     2</i>
   <i type="logical" name="LWAVE"> F  </i>
   <i type="logical" name="LDOWNSAMPLE"> F  </i>
   <i type="logical" name="LCHARG"> F  </i>
   <i type="logical" name="LPARD"> F  </i>
   <i type="logical" name="LVTOT"> F  </i>
   <i type="logical" name="LVHAR"> F  </i>
   <i type="logical" name="LELF"> F  </i>
   <i type="logical" name="LOPTICS"> F  </i>
   <v name="STM">      0.00000000      0.00000000      0.00000000      0.00000000      0.00000000      0.00000000      0.00000000</v>
  </separator>
  <separator name="performance" >
   <i type="int" name="NPAR">     6</i>
   <i type="int" name="NSIM">     4</i>
   <i type="int" name="NBLK">    -1</i>
   <i type="logical" name="LPLANE"> T  </i>
   <i type="logical" name="LSCALAPACK"> T  </i>
   <i type="logical" name="LSCAAWARE"> F  </i>
   <i type="logical" name="LSCALU"> F  </i>
   <i type="logical" name="LASYNC"> F  </i>
   <i type="logical" name="LORBITALREAL"> F  </i>
  </separator>
  <separator name="miscellaneous" >
   <i type="int" name="IDIOT">     3</i>
   <i type="int" name="ISPECIAL">     0</i>
   <i type="logical" name="LMUSIC"> F  </i>
   <v name="POMASS">     12.01100000     16.00000000</v>
   <v name="DARWINR">      0.00000000      0.00000000</v>
   <v name="DARWINV">      1.00000000      1.00000000</v>
   <i type="logical" name="LCORR"> T  </i>
  </separator>
  <i type="logical" name="GGA_COMPAT"> T  </i>
  <i type="logical" name="LBERRY"> F  </i>
  <i type="int" name="ICORELEVEL">     0</i>
  <i type="logical" name="LDAU"> F  </i>
  <i type="int" name="I_CONSTRAINED_M">     0</i>
  <separator name="electronic exchange-correlation" >
   <i type="string" name="GGA">--</i>
   <i type="int" name="VOSKOWN">     0</i>
   <i type="logical" name="LHFCALC"> F  </i>
   <i type="string" name="PRECFOCK"></i>
   <i type="logical" name="LSYMGRAD"> F  </i>
   <i type="logical" name="LHFONE"> F  </i>
   <i type="logical" name="LRHFCALC"> F  </i>
   <i type="logical" name="LTHOMAS"> F  </i>
   <i type="logical" name="LMODELHF"> F  </i>
   <i name="ENCUT4O">     -1.00000000</i>
   <i type="int" name="EXXOEP">     0</i>
   <i type="int" name="FOURORBIT">     0</i>
   <i name="AEXX">      0.00000000</i>
   <i name="HFALPHA">      0.00000000</i>
   <i name="MCALPHA">      0.00000000</i>
   <i name="ALDAX">      1.00000000</i>
   <i name="AGGAX">      1.00000000</i>
   <i name="ALDAC">      1.00000000</i>
   <i name="AGGAC">      1.00000000</i>
   <i type="int" name="NKREDX">     1</i>
   <i type="int" name="NKREDY">     1</i>
   <i type="int" name="NKREDZ">     1</i>
   <i type="logical" name="SHIFTRED"> F  </i>
   <i type="logical" name="ODDONLY"> F  </i>
   <i type="logical" name="EVENONLY"> F  </i>
   <i type="int" name="LMAXFOCK">     0</i>
   <i type="int" name="NMAXFOCKAE">     0</i>
   <i type="logical" name="LFOCKAEDFT"> F  </i>
   <i name="HFSCREEN">      0.00000000</i>
   <i name="HFSCREENC">      0.00000000</i>
   <i type="int" name="NBANDSGWLOW">     0</i>
  </separator>
  <separator name="vdW DFT" >
   <i type="logical" name="LUSE_VDW"> F  </i>
   <i name="Zab_VDW">     -0.84910000</i>
   <i name="PARAM1">      0.12340000</i>
   <i name="PARAM2">      1.00000000</i>
   <i name="PARAM3">      0.00000000</i>
  </separator>
  <separator name="model GW" >
   <i type="int" name="MODEL_GW">     0</i>
   <i name="MODEL_EPS0">     30.82846644</i>
   <i name="MODEL_ALPHA">      1.00000000</i>
  </separator>
  <separator name="linear response parameters" >
   <i type="logical" name="LEPSILON"> F  </i>
   <i type="logical" name="LRPA"> F  </i>
   <i type="logical" name="LNABLA"> F  </i>
   <i type="logical" name="LVEL"> F  </i>
   <i type="int" name="KINTER">     0</i>
   <i name="CSHIFT">      0.10000000</i>
   <i name="OMEGAMAX">     -1.00000000</i>
   <i name="DEG_THRESHOLD">      0.00200000</i>
   <i name="RTIME">     -0.10000000</i>
   <i name="WPLASMAI">      0.00000000</i>
   <v name="DFIELD">      0.00000000      0.00000000      0.00000000</v>
   <v name="WPLASMA">      0.00000000      0.00000000      0.00000000      0.00000000      0.00000000      0.00000000      0.00000000      0.00000000      0.00000000</v>
  </separator>
  <separator name="orbital magnetization" >
   <i type="logical" name="NUCIND"> F  </i>
   <v name="MAGPOS">      0.00000000      0.00000000      0.00000000</v>
   <i type="logical" name="LNICSALL"> T  </i>
   <i type="logical" name="ORBITALMAG"> F  </i>
   <i type="logical" name="LMAGBLOCH"> F  </i>
   <i type="logical" name="LCHIMAG"> F  </i>
   <i type="logical" name="LGAUGE"> T  </i>
   <i type="int" name="MAGATOM">     0</i>
   <v name="MAGDIPOL">      0.00000000      0.00000000      0.00000000</v>
   <v name="AVECCONST">      0.00000000      0.00000000      0.00000000</v>
  </separator>
  <separator name="response functions" >
   <i type="logical" name="LADDER"> F  </i>
   <i type="logical" name="LRPAFORCE"> F  </i>
   <i type="logical" name="LFXC"> F  </i>
   <i type="logical" name="LHARTREE"> T  </i>
   <i type="int" name="IBSE">     0</i>
   <v type="int" name="KPOINT">    -1     0     0     0</v>
   <i type="logical" name="LTCTE"> F  </i>
   <i type="logical" name="LTETE"> F  </i>
   <i type="logical" name="LTRIPLET"> F  </i>
   <i type="logical" name="LFXCEPS"> F  </i>
   <i type="logical" name="LFXHEG"> F  </i>
   <i type="int" name="NATURALO">     2</i>
   <i type="logical" name="L2ORDER"> F  </i>
   <i type="logical" name="LMP2LT"> F  </i>
   <i type="logical" name="LUSEW"> F  </i>
   <i name="ENCUTGW">     -2.00000000</i>
   <i name="ENCUTGWSOFT">     -2.00000000</i>
   <i name="ENCUTLF">     -1.00000000</i>
   <i type="int" name="LMAXMP2">    -1</i>
   <i name="SCISSOR">      0.00000000</i>
   <i type="int" name="NOMEGA">     0</i>
   <i type="int" name="NOMEGAR">     0</i>
   <i type="int" name="NBANDSGW">    -1</i>
   <i type="int" name="NBANDSO">    -1</i>
   <i type="int" name="NBANDSV">    -1</i>
   <i type="int" name="NELM">   300</i>
   <i type="int" name="NELMHF">     1</i>
   <i type="int" name="DIM">     3</i>
   <i type="int" name="ANTIRES">     0</i>
   <i name="OMEGAMAX">    -30.00000000</i>
   <i name="OMEGAMIN">    -30.00000000</i>
   <i name="OMEGATL">   -200.00000000</i>
   <i type="int" name="OMEGAGRID">   140</i>
   <i name="CSHIFT">     -0.10000000</i>
   <i type="logical" name="SELFENERGY"> F  </i>
   <i type="logical" name="LSPECTRAL"> F  </i>
   <i type="logical" name="LSPECTRALGW"> F  </i>
   <i type="logical" name="LSINGLES"> F  </i>
   <i type="logical" name="LFERMIGW"> F  </i>
   <i type="logical" name="ODDONLYGW"> F  </i>
   <i type="logical" name="EVENONLYGW"> F  </i>
   <i type="int" name="NKREDLFX">     1</i>
   <i type="int" name="NKREDLFY">     1</i>
   <i type="int" name="NKREDLFZ">     1</i>
   <i type="int" name="MAXMEM">  2800</i>
   <i type="int" name="TELESCOPE">     0</i>
   <i type="int" name="TAUPAR">     1</i>
   <i type="int" name="OMEGAPAR">    -1</i>
   <i name="LAMBDA">      1.00000000</i>
  </separator>
  <separator name="External order field" >
   <i name="OFIELD_KAPPA">      0.00000000</i>
   <v name="OFIELD_K">      0.00000000      0.00000000      0.00000000</v>
   <i name="OFIELD_Q6_NEAR">      0.00000000</i>
   <i name="OFIELD_Q6_FAR">      0.00000000</i>
   <i name="OFIELD_A">      0.00000000</i>
  </separator>
 </parameters>
 <atominfo>
  <atoms>      51 </atoms>
  <types>       2 </types>
  <array name="atoms" >
   <dimension dim="1">ion</dimension>
   <field type="string">element</field>
   <field type="int">atomtype</field>
   <set>
    <rc><c>C </c><c>   1</c></rc>
    <rc><c>C </c><c>   1</c></rc>
    <rc><c>C </c><c>   1</c></rc>
    <rc><c>C </c><c>   1</c></rc>
    <rc><c>C </c><c>   1</c></rc>
    <rc><c>C </c><c>   1</c></rc>
    <rc><c>C </c><c>   1</c></rc>
    <rc><c>C </c><c>   1</c></rc>
    <rc><c>C </c><c>   1</c></rc>
    <rc><c>C </c><c>   1</c></rc>
    <rc><c>C </c><c>   1</c></rc>
    <rc><c>C </c><c>   1</c></rc>
    <rc><c>C </c><c>   1</c></rc>
    <rc><c>C </c><c>   1</c></rc>
    <rc><c>C </c><c>   1</c></rc>
    <rc><c>C </c><c>   1</c></rc>
    <rc><c>C </c><c>   1</c></rc>
    <rc><c>C </c><c>   1</c></rc>
    <rc><c>C </c><c>   1</c></rc>
    <rc><c>C </c><c>   1</c></rc>
    <rc><c>C </c><c>   1</c></rc>
    <rc><c>C </c><c>   1</c></rc>
    <rc><c>C </c><c>   1</c></rc>
    <rc><c>C </c><c>   1</c></rc>
    <rc><c>C </c><c>   1</c></rc>
    <rc><c>C </c><c>   1</c></rc>
    <rc><c>C </c><c>   1</c></rc>
    <rc><c>C </c><c>   1</c></rc>
    <rc><c>C </c><c>   1</c></rc>
    <rc><c>C </c><c>   1</c></rc>
    <rc><c>C </c><c>   1</c></rc>
    <rc><c>C </c><c>   1</c></rc>
    <rc><c>C </c><c>   1</c></rc>
    <rc><c>C </c><c>   1</c></rc>
    <rc><c>C </c><c>   1</c></rc>
    <rc><c>C </c><c>   1</c></rc>
    <rc><c>C </c><c>   1</c></rc>
    <rc><c>C </c><c>   1</c></rc>
    <rc><c>C </c><c>   1</c></rc>
    <rc><c>C </c><c>   1</c></rc>
    <rc><c>C </c><c>   1</c></rc>
    <rc><c>C </c><c>   1</c></rc>
    <rc><c>C </c><c>   1</c></rc>
    <rc><c>C </c><c>   1</c></rc>
    <rc><c>C </c><c>   1</c></rc>
    <rc><c>C </c><c>   1</c></rc>
    <rc><c>C </c><c>   1</c></rc>
    <rc><c>C </c><c>   1</c></rc>
    <rc><c>C </c><c>   1</c></rc>
    <rc><c>C </c><c>   1</c></rc>
    <rc><c>O </c><c>   2</c></rc>
   </set>
  </array>
  <array name="atomtypes" >
   <dimension dim="1">type</dimension>
   <field type="int">atomspertype</field>
   <field type="string">element</field>
   <field>mass</field>
   <field>valence</field>
   <field type="string">pseudopotential</field>
   <set>
    <rc><c>  50</c><c>C </c><c>     12.01100000</c><c>      4.00000000</c><c>  PAW_PBE C 08Apr2002                   </c></rc>
    <rc><c>   1</c><c>O </c><c>     16.00000000</c><c>      6.00000000</c><c>  PAW_PBE O 08Apr2002                   </c></rc>
   </set>
  </array>
 </atominfo>
 <structure name="initialpos" >
  <crystal>
   <varray name="basis" >
    <v>      12.30000019       0.00000000       0.00000000 </v>
    <v>       6.15000080      10.65211222       0.00000000 </v>
    <v>       0.00000000       0.00000000      20.00000000 </v>
   </varray>
   <i name="volume">   2620.41964732 </i>
   <varray name="rec_basis" >
    <v>       0.08130081      -0.04693905       0.00000000 </v>
    <v>       0.00000000       0.09387809       0.00000000 </v>
    <v>       0.00000000       0.00000000       0.05000000 </v>
   </varray>
  </crystal>
  <varray name="positions" >
   <v>       0.00000000       0.00000000       0.41799748 </v>
   <v>       0.20000000       0.00000000       0.41799748 </v>
   <v>       0.40000000       0.00000000       0.41799748 </v>
   <v>       0.60000000       0.00000000       0.41799748 </v>
   <v>       0.80000000       0.00000000       0.41799748 </v>
   <v>       0.00000000       0.20000000       0.41799748 </v>
   <v>       0.20000000       0.20000000       0.41799748 </v>
   <v>       0.40000000       0.20000000       0.41749748 </v>
   <v>       0.60000000       0.20000000       0.41799748 </v>
   <v>       0.80000000       0.20000000       0.41799748 </v>
   <v>       0.00000000       0.40000000       0.41799748 </v>
   <v>       0.20000000       0.40000000       0.41799748 </v>
   <v>       0.40000000       0.40000000       0.41799748 </v>
   <v>       0.60000000       0.40000000       0.41799748 </v>
   <v>       0.80000000       0.40000000       0.41799748 </v>
   <v>       0.00000000       0.60000000       0.41799748 </v>
   <v>       0.20000000       0.60000000       0.41799748 </v>
   <v>       0.40000000       0.60000000       0.41799748 </v>
   <v>       0.60000000       0.60000000       0.41799748 </v>
   <v>       0.80000000       0.60000000       0.41799748 </v>
   <v>       0.00000000       0.80000000       0.41799748 </v>
   <v>       0.20000000       0.80000000       0.41799748 </v>
   <v>       0.40000000       0.80000000       0.41799748 </v>
   <v>       0.60000000       0.80000000       0.41799748 </v>
   <v>       0.80000000       0.80000000       0.41799748 </v>
   <v>       0.06666667       0.06666660       0.41800609 </v>
   <v>       0.26666667       0.06666660       0.41800609 </v>
   <v>       0.46666667       0.06666660       0.41800609 </v>
   <v>       0.66666667       0.06666660       0.41800609 </v>
   <v>       0.86666667       0.06666660       0.41800609 </v>
   <v>       0.06666667       0.26666660       0.41800609 </v>
   <v>       0.26666667       0.26666660       0.41800609 </v>
   <v>       0.46666667       0.26666660       0.41800609 </v>
   <v>       0.66666667       0.26666660       0.41800609 </v>
   <v>       0.86666667       0.26666660       0.41800609 </v>
   <v>       0.06666667       0.46666660       0.41800609 </v>
   <v>       0.26666667       0.46666660       0.41800609 </v>
   <v>       0.46666667       0.46666660       0.41800609 </v>
   <v>       0.66666667       0.46666660       0.41800609 </v>
   <v>       0.86666667       0.46666660       0.41800609 </v>
   <v>       0.06666667       0.66666660       0.41800609 </v>
   <v>       0.26666667       0.66666660       0.41800609 </v>
   <v>       0.46666667       0.66666660       0.41800609 </v>
   <v>       0.66666667       0.66666660       0.41800609 </v>
   <v>       0.86666667       0.66666660       0.41800609 </v>
   <v>       0.06666667       0.86666660       0.41800609 </v>
   <v>       0.26666667       0.86666660       0.41800609 </v>
   <v>       0.46666667       0.86666660       0.41800609 </v>
   <v>       0.66666667       0.86666660       0.41800609 </v>
   <v>       0.86666667       0.86666660       0.41800609 </v>
   <v>       0.40000000       0.40000000       0.46800609 </v>
  </varray>
  <varray name="velocities" >
   <v>       0.00000000       0.00000000       0.00000000 </v>
   <v>       0.00000000       0.00000000       0.00000000 </v>
   <v>       0.00000000       0.00000000       0.00000000 </v>
   <v>       0.00000000       0.00000000       0.00000000 </v>
   <v>       0.00000000       0.00000000       0.00000000 </v>
   <v>       0.00000000       0.00000000       0.00000000 </v>
   <v>       0.00000000       0.00000000       0.00000000 </v>
   <v>       0.00000000       0.00000000       0.00000000 </v>
   <v>       0.00000000       0.00000000       0.00000000 </v>
   <v>       0.00000000       0.00000000       0.00000000 </v>
   <v>       0.00000000       0.00000000       0.00000000 </v>
   <v>       0.00000000       0.00000000       0.00000000 </v>
   <v>       0.00000000       0.00000000       0.00000000 </v>
   <v>       0.00000000       0.00000000       0.00000000 </v>
   <v>       0.00000000       0.00000000       0.00000000 </v>
   <v>       0.00000000       0.00000000       0.00000000 </v>
   <v>       0.00000000       0.00000000       0.00000000 </v>
   <v>       0.00000000       0.00000000       0.00000000 </v>
   <v>       0.00000000       0.00000000       0.00000000 </v>
   <v>       0.00000000       0.00000000       0.00000000 </v>
   <v>       0.00000000       0.00000000       0.00000000 </v>
   <v>       0.00000000       0.00000000       0.00000000 </v>
   <v>       0.00000000       0.00000000       0.00000000 </v>
   <v>       0.00000000       0.00000000       0.00000000 </v>
   <v>       0.00000000       0.00000000       0.00000000 </v>
   <v>       0.00000000       0.00000000       0.00000000 </v>
   <v>       0.00000000       0.00000000       0.00000000 </v>
   <v>       0.00000000       0.00000000       0.00000000 </v>
   <v>       0.00000000       0.00000000       0.00000000 </v>
   <v>       0.00000000       0.00000000       0.00000000 </v>
   <v>       0.00000000       0.00000000       0.00000000 </v>
   <v>       0.00000000       0.00000000       0.00000000 </v>
   <v>       0.00000000       0.00000000       0.00000000 </v>
   <v>       0.00000000       0.00000000       0.00000000 </v>
   <v>       0.00000000       0.00000000       0.00000000 </v>
   <v>       0.00000000       0.00000000       0.00000000 </v>
   <v>       0.00000000       0.00000000       0.00000000 </v>
   <v>       0.00000000       0.00000000       0.00000000 </v>
   <v>       0.00000000       0.00000000       0.00000000 </v>
   <v>       0.00000000       0.00000000       0.00000000 </v>
   <v>       0.00000000       0.00000000       0.00000000 </v>
   <v>       0.00000000       0.00000000       0.00000000 </v>
   <v>       0.00000000       0.00000000       0.00000000 </v>
   <v>       0.00000000       0.00000000       0.00000000 </v>
   <v>       0.00000000       0.00000000       0.00000000 </v>
   <v>       0.00000000       0.00000000       0.00000000 </v>
   <v>       0.00000000       0.00000000       0.00000000 </v>
   <v>       0.00000000       0.00000000       0.00000000 </v>
   <v>       0.00000000       0.00000000       0.00000000 </v>
   <v>       0.00000000       0.00000000       0.00000000 </v>
   <v>       0.00000000       0.00000000       0.00000000 </v>
  </varray>
 </structure>
 <calculation>
  <scstep>
   <time name="dav">    4.09    4.10</time>
   <time name="total">    4.68    4.69</time>
   <energy>
    <i name="alphaZ">     82.54348252 </i>
    <i name="ewald">  34516.32360995 </i>
    <i name="hartreedc"> -41034.64337884 </i>
    <i name="XCdc">    721.37937512 </i>
    <i name="pawpsdc">  22781.19595426 </i>
    <i name="pawaedc"> -22817.52509957 </i>
    <i name="eentropy">     -0.00050051 </i>
    <i name="bandstr">  -2491.19202180 </i>
    <i name="atom">   7788.62438962 </i>
    <i name="e_fr_energy">   -453.29418925 </i>
    <i name="e_wo_entrp">   -453.29368874 </i>
    <i name="e_0_energy">   -453.29393899 </i>
   </energy>
  </scstep>
  <scstep>
   <time name="diag">    0.92    0.92</time>
   <time name="diis">    3.77    3.78</time>
   <time name="orth">    0.04    0.04</time>
   <time name="total">    5.31    5.32</time>
   <energy>
    <i name="e_fr_energy">   -454.28190739 </i>
    <i name="e_wo_entrp">   -454.28181028 </i>
    <i name="e_0_energy">   -454.28185884 </i>
   </energy>
  </scstep>
  <scstep>
   <time name="diag">    0.91    0.92</time>
   <time name="diis">    4.14    4.15</time>
   <time name="orth">    0.04    0.04</time>
   <time name="total">    5.68    5.69</time>
   <energy>
    <i name="e_fr_energy">   -454.33416966 </i>
    <i name="e_wo_entrp">   -454.33404387 </i>
    <i name="e_0_energy">   -454.33410676 </i>
   </energy>
  </scstep>
  <scstep>
   <time name="diag">    0.88    0.88</time>
   <time name="diis">    4.07    4.08</time>
   <time name="orth">    0.04    0.04</time>
   <time name="total">    5.57    5.58</time>
   <energy>
    <i name="e_fr_energy">   -454.33810988 </i>
    <i name="e_wo_entrp">   -454.33799948 </i>
    <i name="e_0_energy">   -454.33805468 </i>
   </energy>
  </scstep>
  <scstep>
   <time name="diag">    0.88    0.88</time>
   <time name="diis">    4.02    4.02</time>
   <time name="orth">    0.04    0.04</time>
   <time name="total">    5.51    5.53</time>
   <energy>
    <i name="e_fr_energy">   -454.33825219 </i>
    <i name="e_wo_entrp">   -454.33813937 </i>
    <i name="e_0_energy">   -454.33819578 </i>
   </energy>
  </scstep>
  <scstep>
   <time name="diag">    0.88    0.88</time>
   <time name="diis">    3.98    3.99</time>
   <time name="orth">    0.04    0.04</time>
   <time name="total">    5.48    5.49</time>
   <energy>
    <i name="e_fr_energy">   -454.33825098 </i>
    <i name="e_wo_entrp">   -454.33813634 </i>
    <i name="e_0_energy">   -454.33819366 </i>
   </energy>
  </scstep>
  <scstep>
   <time name="diag">    0.90    0.90</time>
   <time name="diis">    3.22    3.22</time>
   <time name="orth">    0.04    0.04</time>
   <time name="total">    4.74    4.75</time>
   <energy>
    <i name="e_fr_energy">   -454.33826724 </i>
    <i name="e_wo_entrp">   -454.33815140 </i>
    <i name="e_0_energy">   -454.33820932 </i>
   </energy>
  </scstep>
  <scstep>
   <time name="diag">    0.90    0.90</time>
   <time name="diis">    2.70    2.70</time>
   <time name="orth">    0.04    0.04</time>
   <time name="total">    3.82    3.82</time>
   <energy>
    <i name="alphaZ">     82.54348252 </i>
    <i name="ewald">  34516.32360995 </i>
    <i name="hartreedc"> -41034.60616470 </i>
    <i name="XCdc">    721.37966323 </i>
    <i name="pawpsdc">  22780.51002457 </i>
    <i name="pawaedc"> -22816.83950494 </i>
    <i name="eentropy">     -0.00011551 </i>
    <i name="bandstr">  -2492.27365513 </i>
    <i name="atom">   7788.62438962 </i>
    <i name="e_fr_energy">   -454.33827040 </i>
    <i name="e_wo_entrp">   -454.33815489 </i>
    <i name="e_0_energy">   -454.33821265 </i>
   </energy>
  </scstep>
  <structure>
   <crystal>
    <varray name="basis" >
     <v>      12.30000019       0.00000000       0.00000000 </v>
     <v>       6.15000080      10.65211222       0.00000000 </v>
     <v>       0.00000000       0.00000000      20.00000000 </v>
    </varray>
    <i name="volume">   2620.41964732 </i>
    <varray name="rec_basis" >
     <v>       0.08130081      -0.04693905       0.00000000 </v>
     <v>       0.00000000       0.09387809       0.00000000 </v>
     <v>       0.00000000       0.00000000       0.05000000 </v>
    </varray>
   </crystal>
   <varray name="positions" >
    <v>       0.00000000       0.00000000       0.41799748 </v>
    <v>       0.20000000       0.00000000       0.41799748 </v>
    <v>       0.40000000       0.00000000       0.41799748 </v>
    <v>       0.60000000       0.00000000       0.41799748 </v>
    <v>       0.80000000       0.00000000       0.41799748 </v>
    <v>       0.00000000       0.20000000       0.41799748 </v>
    <v>       0.20000000       0.20000000       0.41799748 </v>
    <v>       0.40000000       0.20000000       0.41749748 </v>
    <v>       0.60000000       0.20000000       0.41799748 </v>
    <v>       0.80000000       0.20000000       0.41799748 </v>
    <v>       0.00000000       0.40000000       0.41799748 </v>
    <v>       0.20000000       0.40000000       0.41799748 </v>
    <v>       0.40000000       0.40000000       0.41799748 </v>
    <v>       0.60000000       0.40000000       0.41799748 </v>
    <v>       0.80000000       0.40000000       0.41799748 </v>
    <v>       0.00000000       0.60000000       0.41799748 </v>
    <v>       0.20000000       0.60000000       0.41799748 </v>
    <v>       0.40000000       0.60000000       0.41799748 </v>
    <v>       0.60000000       0.60000000       0.41799748 </v>
    <v>       0.80000000       0.60000000       0.41799748 </v>
    <v>       0.00000000       0.80000000       0.41799748 </v>
    <v>       0.20000000       0.80000000       0.41799748 </v>
    <v>       0.40000000       0.80000000       0.41799748 </v>
    <v>       0.60000000       0.80000000       0.41799748 </v>
    <v>       0.80000000       0.80000000       0.41799748 </v>
    <v>       0.06666667       0.06666660       0.41800609 </v>
    <v>       0.26666667       0.06666660       0.41800609 </v>
    <v>       0.46666667       0.06666660       0.41800609 </v>
    <v>       0.66666667       0.06666660       0.41800609 </v>
    <v>       0.86666667       0.06666660       0.41800609 </v>
    <v>       0.06666667       0.26666660       0.41800609 </v>
    <v>       0.26666667       0.26666660       0.41800609 </v>
    <v>       0.46666667       0.26666660       0.41800609 </v>
    <v>       0.66666667       0.26666660       0.41800609 </v>
    <v>       0.86666667       0.26666660       0.41800609 </v>
    <v>       0.06666667       0.46666660       0.41800609 </v>
    <v>       0.26666667       0.46666660       0.41800609 </v>
    <v>       0.46666667       0.46666660       0.41800609 </v>
    <v>       0.66666667       0.46666660       0.41800609 </v>
    <v>       0.86666667       0.46666660       0.41800609 </v>
    <v>       0.06666667       0.66666660       0.41800609 </v>
    <v>       0.26666667       0.66666660       0.41800609 </v>
    <v>       0.46666667       0.66666660       0.41800609 </v>
    <v>       0.66666667       0.66666660       0.41800609 </v>
    <v>       0.86666667       0.66666660       0.41800609 </v>
    <v>       0.06666667       0.86666660       0.41800609 </v>
    <v>       0.26666667       0.86666660       0.41800609 </v>
    <v>       0.46666667       0.86666660       0.41800609 </v>
    <v>       0.66666667       0.86666660       0.41800609 </v>
    <v>       0.86666667       0.86666660       0.41800609 </v>
    <v>       0.40000000       0.40000000       0.46800609 </v>
   </varray>
  </structure>
  <varray name="forces" >
   <v>      -0.04773266      -0.02769948       0.00958736 </v>
   <v>       0.04796212      -0.02713061       0.00850038 </v>
   <v>      -0.15692928       0.01347959      -0.02029657 </v>
   <v>      -0.00208936      -0.20504078      -0.02101983 </v>
   <v>       0.15930379       0.01396840      -0.02698609 </v>
   <v>      -0.00013997       0.05506683       0.00943636 </v>
   <v>       0.42919489       0.24812714       0.00586443 </v>
   <v>       0.10105815      -0.20446730       0.29228577 </v>
   <v>      -0.09765399      -0.20420384       0.17068553 </v>
   <v>      -0.42925215       0.24802581      -0.00051121 </v>
   <v>      -0.06745190      -0.14514044      -0.02691107 </v>
   <v>      -0.13230608       0.18409553       0.17105606 </v>
   <v>       0.00770915      -0.01113851     -48.16111207 </v>
   <v>       0.13052658       0.18285405       0.16503022 </v>
   <v>       0.06685695      -0.14515799      -0.02595907 </v>
   <v>      -0.18027046       0.10409568      -0.02686884 </v>
   <v>      -0.22502466       0.02035518       0.16495760 </v>
   <v>       0.22501881       0.02159230       0.16567840 </v>
   <v>       0.18039673       0.10386285      -0.02700604 </v>
   <v>      -0.00057421      -0.01278172       0.01795149 </v>
   <v>       0.09185968       0.13059025      -0.02597228 </v>
   <v>       0.00011989      -0.49489728      -0.00002283 </v>
   <v>      -0.09216118       0.13054114      -0.02595445 </v>
   <v>      -0.01088927       0.00758120       0.01700370 </v>
   <v>       0.01065140       0.00656523       0.01792232 </v>
   <v>      -0.00003889       0.00026787      -0.00598893 </v>
   <v>       0.09662888      -0.21729420       0.00608807 </v>
   <v>       0.19121407       0.24560503       0.20036609 </v>
   <v>      -0.19397746       0.25112178       0.25342489 </v>
   <v>      -0.09733628      -0.21749247       0.01040859 </v>
   <v>      -0.13976612       0.19319779       0.01577708 </v>
   <v>      -0.44291191      -0.25313020      -0.41337424 </v>
   <v>      -0.00080225      -5.07091654      -4.40827560 </v>
   <v>       0.44354947      -0.25348860      -0.35068246 </v>
   <v>       0.13972286       0.19277104       0.00909779 </v>
   <v>       0.31462382       0.04265600       0.26091660 </v>
   <v>      -4.39372052       2.53862295      -4.34942307 </v>
   <v>       4.39352825       2.53997797      -4.34688969 </v>
   <v>      -0.31392401       0.04307644       0.25687779 </v>
   <v>       0.00017751       0.08212790      -0.02256830 </v>
   <v>       0.11967321      -0.29324083       0.25690416 </v>
   <v>       0.00068268       0.50999110      -0.35542362 </v>
   <v>      -0.12029785      -0.29322321       0.25695465 </v>
   <v>      -0.08224329      -0.04859967      -0.02699707 </v>
   <v>       0.08262317      -0.04754770      -0.02664089 </v>
   <v>      -0.23648194       0.02459464       0.01001856 </v>
   <v>       0.23671672       0.02386656       0.01016258 </v>
   <v>       0.07071019      -0.04110261      -0.01773724 </v>
   <v>      -0.00018713       0.09268354      -0.02224978 </v>
   <v>      -0.07072300      -0.04057778      -0.02213612 </v>
   <v>      -0.00562314       0.00290994      59.99405088 </v>
  </varray>
  <varray name="stress" >
   <v>       9.50648349       0.00370913      -0.00420050 </v>
   <v>       0.00370913       9.51464925       0.00299050 </v>
   <v>      -0.00420051       0.00299050      31.95955494 </v>
  </varray>
  <energy>
   <i name="e_fr_energy">   -454.33827040 </i>
   <i name="e_wo_entrp">   -454.33821265 </i>
   <i name="e_0_energy">     -0.00011551 </i>
  </energy>
  <time name="totalsc">   46.99   47.08</time>
  <eigenvalues>
   <array>
    <dimension dim="1">band</dimension>
    <dimension dim="2">kpoint</dimension>
    <dimension dim="3">spin</dimension>
    <field>eigene</field>
    <field>occ</field>
    <set>
     <set comment="spin 1">
      <set comment="kpoint 1">
       <r>  -31.7394    1.0000 </r>
       <r>  -22.2714    1.0000 </r>
       <r>  -21.5033    1.0000 </r>
       <r>  -21.5028    1.0000 </r>
       <r>  -21.3948    1.0000 </r>
       <r>  -21.3947    1.0000 </r>
       <r>  -21.3944    1.0000 </r>
       <r>  -20.8745    1.0000 </r>
       <r>  -19.8768    1.0000 </r>
       <r>  -19.8759    1.0000 </r>
       <r>  -19.5496    1.0000 </r>
       <r>  -19.5495    1.0000 </r>
       <r>  -19.5393    1.0000 </r>
       <r>  -19.1917    1.0000 </r>
       <r>  -18.9013    1.0000 </r>
       <r>  -18.9010    1.0000 </r>
       <r>  -18.6440    1.0000 </r>
       <r>  -18.6434    1.0000 </r>
       <r>  -18.6433    1.0000 </r>
       <r>  -17.8846    1.0000 </r>
       <r>  -17.0217    1.0000 </r>
       <r>  -17.0210    1.0000 </r>
       <r>  -16.4781    1.0000 </r>
       <r>  -16.4586    1.0000 </r>
       <r>  -16.4585    1.0000 </r>
       <r>  -16.0499    1.0000 </r>
       <r>  -15.9970    1.0000 </r>
       <r>  -15.9967    1.0000 </r>
       <r>  -15.4978    1.0000 </r>
       <r>  -15.4977    1.0000 </r>
       <r>  -15.4933    1.0000 </r>
       <r>  -15.0895    1.0000 </r>
       <r>  -14.6299    1.0000 </r>
       <r>  -14.6296    1.0000 </r>
       <r>  -14.1501    1.0000 </r>
       <r>  -14.1500    1.0000 </r>
       <r>  -14.1434    1.0000 </r>
       <r>  -13.9641    1.0000 </r>
       <r>  -12.9921    1.0000 </r>
       <r>  -12.9915    1.0000 </r>
       <r>  -12.0307    1.0000 </r>
       <r>  -11.7652    1.0000 </r>
       <r>  -11.7650    1.0000 </r>
       <r>  -11.7618    1.0000 </r>
       <r>  -11.6907    1.0000 </r>
       <r>  -11.6906    1.0000 </r>
       <r>  -11.6520    1.0000 </r>
       <r>  -11.6502    1.0000 </r>
       <r>  -11.6500    1.0000 </r>
       <r>  -11.6492    1.0000 </r>
       <r>  -10.8028    1.0000 </r>
       <r>  -10.8023    1.0000 </r>
       <r>  -10.4286    1.0000 </r>
       <r>  -10.3347    1.0000 </r>
       <r>  -10.2891    1.0000 </r>
       <r>  -10.2889    1.0000 </r>
       <r>  -10.2709    1.0000 </r>
       <r>  -10.0779    1.0000 </r>
       <r>   -9.6862    1.0000 </r>
       <r>   -9.6852    1.0000 </r>
       <r>   -9.3259    1.0000 </r>
       <r>   -9.3255    1.0000 </r>
       <r>   -9.3007    1.0000 </r>
       <r>   -9.2798    1.0000 </r>
       <r>   -9.2796    1.0000 </r>
       <r>   -9.0461    1.0000 </r>
       <r>   -9.0050    1.0000 </r>
       <r>   -9.0049    1.0000 </r>
       <r>   -8.9490    1.0000 </r>
       <r>   -8.9409    1.0000 </r>
       <r>   -8.9409    1.0000 </r>
       <r>   -8.9403    1.0000 </r>
       <r>   -8.9194    1.0000 </r>
       <r>   -8.9193    1.0000 </r>
       <r>   -8.8934    1.0000 </r>
       <r>   -8.4360    1.0000 </r>
       <r>   -7.8037    1.0000 </r>
       <r>   -7.8015    1.0000 </r>
       <r>   -7.3252    1.0000 </r>
       <r>   -7.3242    1.0000 </r>
       <r>   -7.3105    1.0000 </r>
       <r>   -7.3011    1.0000 </r>
       <r>   -7.3000    1.0000 </r>
       <r>   -7.2976    1.0000 </r>
       <r>   -7.1611    1.0000 </r>
       <r>   -7.1608    1.0000 </r>
       <r>   -7.1551    1.0000 </r>
       <r>   -6.7520    1.0000 </r>
       <r>   -6.5077    1.0000 </r>
       <r>   -6.5067    1.0000 </r>
       <r>   -6.2673    1.0000 </r>
       <r>   -6.2467    1.0000 </r>
       <r>   -6.2466    1.0000 </r>
       <r>   -5.9238    1.0000 </r>
       <r>   -5.9222    1.0000 </r>
       <r>   -5.1965    1.0000 </r>
       <r>   -4.7635    1.0000 </r>
       <r>   -4.7621    1.0000 </r>
       <r>   -4.2708    1.0000 </r>
       <r>   -4.2667    1.0000 </r>
       <r>   -4.2667    1.0000 </r>
       <r>   -3.2159    1.0000 </r>
       <r>   -3.2144    1.0000 </r>
       <r>   -2.9170    0.0022 </r>
       <r>   -1.4616    0.0000 </r>
       <r>   -1.4574    0.0000 </r>
       <r>   -1.4574    0.0000 </r>
       <r>   -0.9922    0.0000 </r>
       <r>   -0.9918    0.0000 </r>
       <r>   -0.5433    0.0000 </r>
       <r>    0.4167    0.0000 </r>
       <r>    0.4214    0.0000 </r>
       <r>    0.4215    0.0000 </r>
       <r>    0.5626    0.0000 </r>
       <r>    0.8428    0.0000 </r>
       <r>    0.8437    0.0000 </r>
       <r>    1.2929    0.0000 </r>
       <r>    1.3398    0.0000 </r>
       <r>    1.6753    0.0000 </r>
       <r>    1.8024    0.0000 </r>
       <r>    1.8025    0.0000 </r>
       <r>    1.8033    0.0000 </r>
       <r>    1.8271    0.0000 </r>
       <r>    1.8286    0.0000 </r>
       <r>    2.0320    0.0000 </r>
       <r>    2.1765    0.0000 </r>
       <r>    2.1791    0.0000 </r>
       <r>    2.1791    0.0000 </r>
       <r>    2.3461    0.0000 </r>
       <r>    2.3473    0.0000 </r>
       <r>    2.6091    0.0000 </r>
       <r>    2.7245    0.0000 </r>
      </set>
      <set comment="kpoint 2">
       <r>  -31.7394    1.0000 </r>
       <r>  -22.1894    1.0000 </r>
       <r>  -21.8696    1.0000 </r>
       <r>  -21.6614    1.0000 </r>
       <r>  -21.4549    1.0000 </r>
       <r>  -21.0348    1.0000 </r>
       <r>  -20.8975    1.0000 </r>
       <r>  -20.7277    1.0000 </r>
       <r>  -20.4202    1.0000 </r>
       <r>  -20.1626    1.0000 </r>
       <r>  -19.7872    1.0000 </r>
       <r>  -19.6988    1.0000 </r>
       <r>  -19.3268    1.0000 </r>
       <r>  -19.2432    1.0000 </r>
       <r>  -19.0619    1.0000 </r>
       <r>  -18.5930    1.0000 </r>
       <r>  -18.4582    1.0000 </r>
       <r>  -18.1215    1.0000 </r>
       <r>  -18.0632    1.0000 </r>
       <r>  -17.5911    1.0000 </r>
       <r>  -17.4979    1.0000 </r>
       <r>  -17.3012    1.0000 </r>
       <r>  -17.2769    1.0000 </r>
       <r>  -16.8518    1.0000 </r>
       <r>  -16.6587    1.0000 </r>
       <r>  -16.1766    1.0000 </r>
       <r>  -15.9780    1.0000 </r>
       <r>  -15.8479    1.0000 </r>
       <r>  -15.2986    1.0000 </r>
       <r>  -15.1699    1.0000 </r>
       <r>  -15.1345    1.0000 </r>
       <r>  -14.8852    1.0000 </r>
       <r>  -14.7820    1.0000 </r>
       <r>  -14.4777    1.0000 </r>
       <r>  -14.4563    1.0000 </r>
       <r>  -13.7676    1.0000 </r>
       <r>  -13.7606    1.0000 </r>
       <r>  -13.1957    1.0000 </r>
       <r>  -13.0897    1.0000 </r>
       <r>  -12.9345    1.0000 </r>
       <r>  -12.9048    1.0000 </r>
       <r>  -12.5859    1.0000 </r>
       <r>  -12.5504    1.0000 </r>
       <r>  -12.3900    1.0000 </r>
       <r>  -12.0228    1.0000 </r>
       <r>  -11.6636    1.0000 </r>
       <r>  -11.4475    1.0000 </r>
       <r>  -11.2967    1.0000 </r>
       <r>  -11.1220    1.0000 </r>
       <r>  -10.9145    1.0000 </r>
       <r>  -10.8506    1.0000 </r>
       <r>  -10.5847    1.0000 </r>
       <r>  -10.5326    1.0000 </r>
       <r>  -10.2856    1.0000 </r>
       <r>  -10.2372    1.0000 </r>
       <r>  -10.1621    1.0000 </r>
       <r>  -10.0494    1.0000 </r>
       <r>   -9.8542    1.0000 </r>
       <r>   -9.8205    1.0000 </r>
       <r>   -9.6532    1.0000 </r>
       <r>   -9.6060    1.0000 </r>
       <r>   -9.5603    1.0000 </r>
       <r>   -9.5283    1.0000 </r>
       <r>   -9.3719    1.0000 </r>
       <r>   -9.3406    1.0000 </r>
       <r>   -9.2597    1.0000 </r>
       <r>   -9.1759    1.0000 </r>
       <r>   -9.1000    1.0000 </r>
       <r>   -9.0830    1.0000 </r>
       <r>   -8.8654    1.0000 </r>
       <r>   -8.7138    1.0000 </r>
       <r>   -8.6650    1.0000 </r>
       <r>   -8.5026    1.0000 </r>
       <r>   -8.4027    1.0000 </r>
       <r>   -8.2884    1.0000 </r>
       <r>   -8.1331    1.0000 </r>
       <r>   -8.0950    1.0000 </r>
       <r>   -8.0672    1.0000 </r>
       <r>   -7.9718    1.0000 </r>
       <r>   -7.8088    1.0000 </r>
       <r>   -7.6197    1.0000 </r>
       <r>   -7.3614    1.0000 </r>
       <r>   -7.3360    1.0000 </r>
       <r>   -7.2665    1.0000 </r>
       <r>   -7.1968    1.0000 </r>
       <r>   -6.9207    1.0000 </r>
       <r>   -6.8737    1.0000 </r>
       <r>   -6.6917    1.0000 </r>
       <r>   -6.5914    1.0000 </r>
       <r>   -6.3490    1.0000 </r>
       <r>   -6.1856    1.0000 </r>
       <r>   -6.0739    1.0000 </r>
       <r>   -5.9224    1.0000 </r>
       <r>   -5.7379    1.0000 </r>
       <r>   -5.6405    1.0000 </r>
       <r>   -5.3228    1.0000 </r>
       <r>   -5.1146    1.0000 </r>
       <r>   -4.9704    1.0000 </r>
       <r>   -4.9229    1.0000 </r>
       <r>   -4.2702    1.0000 </r>
       <r>   -4.1688    1.0000 </r>
       <r>   -3.3369    1.0000 </r>
       <r>   -3.1375    0.9996 </r>
       <r>   -2.8044    0.0000 </r>
       <r>   -1.5919    0.0000 </r>
       <r>   -1.4242    0.0000 </r>
       <r>   -0.8403    0.0000 </r>
       <r>   -0.8198    0.0000 </r>
       <r>   -0.7065    0.0000 </r>
       <r>   -0.6680    0.0000 </r>
       <r>   -0.1292    0.0000 </r>
       <r>   -0.0067    0.0000 </r>
       <r>    0.2928    0.0000 </r>
       <r>    0.7046    0.0000 </r>
       <r>    0.7270    0.0000 </r>
       <r>    1.0983    0.0000 </r>
       <r>    1.1766    0.0000 </r>
       <r>    1.3650    0.0000 </r>
       <r>    1.4631    0.0000 </r>
       <r>    1.5380    0.0000 </r>
       <r>    1.5709    0.0000 </r>
       <r>    1.6371    0.0000 </r>
       <r>    1.8245    0.0000 </r>
       <r>    1.9122    0.0000 </r>
       <r>    2.0396    0.0000 </r>
       <r>    2.2209    0.0000 </r>
       <r>    2.2653    0.0000 </r>
       <r>    2.3293    0.0000 </r>
       <r>    2.3403    0.0000 </r>
       <r>    2.3957    0.0000 </r>
       <r>    2.4578    0.0000 </r>
       <r>    2.7977    0.0000 </r>
      </set>
      <set comment="kpoint 3">
       <r>  -31.7394    1.0000 </r>
       <r>  -22.1893    1.0000 </r>
       <r>  -21.8696    1.0000 </r>
       <r>  -21.6616    1.0000 </r>
       <r>  -21.4547    1.0000 </r>
       <r>  -21.0350    1.0000 </r>
       <r>  -20.8972    1.0000 </r>
       <r>  -20.7275    1.0000 </r>
       <r>  -20.4204    1.0000 </r>
       <r>  -20.1626    1.0000 </r>
       <r>  -19.7870    1.0000 </r>
       <r>  -19.6993    1.0000 </r>
       <r>  -19.3267    1.0000 </r>
       <r>  -19.2432    1.0000 </r>
       <r>  -19.0616    1.0000 </r>
       <r>  -18.5931    1.0000 </r>
       <r>  -18.4581    1.0000 </r>
       <r>  -18.1216    1.0000 </r>
       <r>  -18.0629    1.0000 </r>
       <r>  -17.5912    1.0000 </r>
       <r>  -17.4981    1.0000 </r>
       <r>  -17.3012    1.0000 </r>
       <r>  -17.2770    1.0000 </r>
       <r>  -16.8517    1.0000 </r>
       <r>  -16.6585    1.0000 </r>
       <r>  -16.1762    1.0000 </r>
       <r>  -15.9783    1.0000 </r>
       <r>  -15.8479    1.0000 </r>
       <r>  -15.2985    1.0000 </r>
       <r>  -15.1703    1.0000 </r>
       <r>  -15.1346    1.0000 </r>
       <r>  -14.8851    1.0000 </r>
       <r>  -14.7823    1.0000 </r>
       <r>  -14.4777    1.0000 </r>
       <r>  -14.4564    1.0000 </r>
       <r>  -13.7676    1.0000 </r>
       <r>  -13.7603    1.0000 </r>
       <r>  -13.1958    1.0000 </r>
       <r>  -13.0897    1.0000 </r>
       <r>  -12.9344    1.0000 </r>
       <r>  -12.9048    1.0000 </r>
       <r>  -12.5856    1.0000 </r>
       <r>  -12.5502    1.0000 </r>
       <r>  -12.3902    1.0000 </r>
       <r>  -12.0223    1.0000 </r>
       <r>  -11.6641    1.0000 </r>
       <r>  -11.4480    1.0000 </r>
       <r>  -11.2965    1.0000 </r>
       <r>  -11.1220    1.0000 </r>
       <r>  -10.9146    1.0000 </r>
       <r>  -10.8503    1.0000 </r>
       <r>  -10.5846    1.0000 </r>
       <r>  -10.5330    1.0000 </r>
       <r>  -10.2854    1.0000 </r>
       <r>  -10.2371    1.0000 </r>
       <r>  -10.1615    1.0000 </r>
       <r>  -10.0497    1.0000 </r>
       <r>   -9.8537    1.0000 </r>
       <r>   -9.8205    1.0000 </r>
       <r>   -9.6542    1.0000 </r>
       <r>   -9.6077    1.0000 </r>
       <r>   -9.5607    1.0000 </r>
       <r>   -9.5273    1.0000 </r>
       <r>   -9.3712    1.0000 </r>
       <r>   -9.3409    1.0000 </r>
       <r>   -9.2599    1.0000 </r>
       <r>   -9.1760    1.0000 </r>
       <r>   -9.1000    1.0000 </r>
       <r>   -9.0824    1.0000 </r>
       <r>   -8.8645    1.0000 </r>
       <r>   -8.7133    1.0000 </r>
       <r>   -8.6645    1.0000 </r>
       <r>   -8.5043    1.0000 </r>
       <r>   -8.4034    1.0000 </r>
       <r>   -8.2884    1.0000 </r>
       <r>   -8.1344    1.0000 </r>
       <r>   -8.0944    1.0000 </r>
       <r>   -8.0651    1.0000 </r>
       <r>   -7.9718    1.0000 </r>
       <r>   -7.8076    1.0000 </r>
       <r>   -7.6205    1.0000 </r>
       <r>   -7.3610    1.0000 </r>
       <r>   -7.3364    1.0000 </r>
       <r>   -7.2668    1.0000 </r>
       <r>   -7.1975    1.0000 </r>
       <r>   -6.9206    1.0000 </r>
       <r>   -6.8730    1.0000 </r>
       <r>   -6.6941    1.0000 </r>
       <r>   -6.5900    1.0000 </r>
       <r>   -6.3493    1.0000 </r>
       <r>   -6.1857    1.0000 </r>
       <r>   -6.0735    1.0000 </r>
       <r>   -5.9215    1.0000 </r>
       <r>   -5.7393    1.0000 </r>
       <r>   -5.6393    1.0000 </r>
       <r>   -5.3224    1.0000 </r>
       <r>   -5.1151    1.0000 </r>
       <r>   -4.9703    1.0000 </r>
       <r>   -4.9230    1.0000 </r>
       <r>   -4.2704    1.0000 </r>
       <r>   -4.1684    1.0000 </r>
       <r>   -3.3370    1.0000 </r>
       <r>   -3.1370    0.9996 </r>
       <r>   -2.8057    0.0000 </r>
       <r>   -1.5914    0.0000 </r>
       <r>   -1.4240    0.0000 </r>
       <r>   -0.8403    0.0000 </r>
       <r>   -0.8195    0.0000 </r>
       <r>   -0.7065    0.0000 </r>
       <r>   -0.6683    0.0000 </r>
       <r>   -0.1292    0.0000 </r>
       <r>   -0.0069    0.0000 </r>
       <r>    0.2928    0.0000 </r>
       <r>    0.7047    0.0000 </r>
       <r>    0.7264    0.0000 </r>
       <r>    1.1016    0.0000 </r>
       <r>    1.1741    0.0000 </r>
       <r>    1.3642    0.0000 </r>
       <r>    1.4639    0.0000 </r>
       <r>    1.5382    0.0000 </r>
       <r>    1.5715    0.0000 </r>
       <r>    1.6364    0.0000 </r>
       <r>    1.8251    0.0000 </r>
       <r>    1.9129    0.0000 </r>
       <r>    2.0400    0.0000 </r>
       <r>    2.2268    0.0000 </r>
       <r>    2.2669    0.0000 </r>
       <r>    2.3361    0.0000 </r>
       <r>    2.4248    0.0000 </r>
       <r>    2.7320    0.0000 </r>
       <r>    3.2550    0.0000 </r>
       <r>    3.6284    0.0000 </r>
      </set>
      <set comment="kpoint 4">
       <r>  -31.7394    1.0000 </r>
       <r>  -22.1894    1.0000 </r>
       <r>  -21.8696    1.0000 </r>
       <r>  -21.6614    1.0000 </r>
       <r>  -21.4549    1.0000 </r>
       <r>  -21.0349    1.0000 </r>
       <r>  -20.8974    1.0000 </r>
       <r>  -20.7276    1.0000 </r>
       <r>  -20.4202    1.0000 </r>
       <r>  -20.1626    1.0000 </r>
       <r>  -19.7871    1.0000 </r>
       <r>  -19.6989    1.0000 </r>
       <r>  -19.3268    1.0000 </r>
       <r>  -19.2432    1.0000 </r>
       <r>  -19.0619    1.0000 </r>
       <r>  -18.5930    1.0000 </r>
       <r>  -18.4582    1.0000 </r>
       <r>  -18.1215    1.0000 </r>
       <r>  -18.0632    1.0000 </r>
       <r>  -17.5913    1.0000 </r>
       <r>  -17.4979    1.0000 </r>
       <r>  -17.3011    1.0000 </r>
       <r>  -17.2769    1.0000 </r>
       <r>  -16.8517    1.0000 </r>
       <r>  -16.6585    1.0000 </r>
       <r>  -16.1766    1.0000 </r>
       <r>  -15.9781    1.0000 </r>
       <r>  -15.8480    1.0000 </r>
       <r>  -15.2986    1.0000 </r>
       <r>  -15.1700    1.0000 </r>
       <r>  -15.1346    1.0000 </r>
       <r>  -14.8852    1.0000 </r>
       <r>  -14.7822    1.0000 </r>
       <r>  -14.4779    1.0000 </r>
       <r>  -14.4563    1.0000 </r>
       <r>  -13.7674    1.0000 </r>
       <r>  -13.7605    1.0000 </r>
       <r>  -13.1959    1.0000 </r>
       <r>  -13.0896    1.0000 </r>
       <r>  -12.9346    1.0000 </r>
       <r>  -12.9047    1.0000 </r>
       <r>  -12.5855    1.0000 </r>
       <r>  -12.5501    1.0000 </r>
       <r>  -12.3903    1.0000 </r>
       <r>  -12.0224    1.0000 </r>
       <r>  -11.6638    1.0000 </r>
       <r>  -11.4481    1.0000 </r>
       <r>  -11.2967    1.0000 </r>
       <r>  -11.1221    1.0000 </r>
       <r>  -10.9145    1.0000 </r>
       <r>  -10.8504    1.0000 </r>
       <r>  -10.5845    1.0000 </r>
       <r>  -10.5332    1.0000 </r>
       <r>  -10.2853    1.0000 </r>
       <r>  -10.2371    1.0000 </r>
       <r>  -10.1616    1.0000 </r>
       <r>  -10.0496    1.0000 </r>
       <r>   -9.8537    1.0000 </r>
       <r>   -9.8205    1.0000 </r>
       <r>   -9.6542    1.0000 </r>
       <r>   -9.6075    1.0000 </r>
       <r>   -9.5606    1.0000 </r>
       <r>   -9.5275    1.0000 </r>
       <r>   -9.3711    1.0000 </r>
       <r>   -9.3416    1.0000 </r>
       <r>   -9.2592    1.0000 </r>
       <r>   -9.1760    1.0000 </r>
       <r>   -9.1000    1.0000 </r>
       <r>   -9.0823    1.0000 </r>
       <r>   -8.8644    1.0000 </r>
       <r>   -8.7130    1.0000 </r>
       <r>   -8.6649    1.0000 </r>
       <r>   -8.5044    1.0000 </r>
       <r>   -8.4032    1.0000 </r>
       <r>   -8.2882    1.0000 </r>
       <r>   -8.1346    1.0000 </r>
       <r>   -8.0946    1.0000 </r>
       <r>   -8.0651    1.0000 </r>
       <r>   -7.9718    1.0000 </r>
       <r>   -7.8080    1.0000 </r>
       <r>   -7.6209    1.0000 </r>
       <r>   -7.3607    1.0000 </r>
       <r>   -7.3368    1.0000 </r>
       <r>   -7.2665    1.0000 </r>
       <r>   -7.1965    1.0000 </r>
       <r>   -6.9206    1.0000 </r>
       <r>   -6.8729    1.0000 </r>
       <r>   -6.6940    1.0000 </r>
       <r>   -6.5907    1.0000 </r>
       <r>   -6.3491    1.0000 </r>
       <r>   -6.1857    1.0000 </r>
       <r>   -6.0732    1.0000 </r>
       <r>   -5.9218    1.0000 </r>
       <r>   -5.7390    1.0000 </r>
       <r>   -5.6400    1.0000 </r>
       <r>   -5.3226    1.0000 </r>
       <r>   -5.1144    1.0000 </r>
       <r>   -4.9704    1.0000 </r>
       <r>   -4.9229    1.0000 </r>
       <r>   -4.2700    1.0000 </r>
       <r>   -4.1687    1.0000 </r>
       <r>   -3.3375    1.0000 </r>
       <r>   -3.1378    0.9997 </r>
       <r>   -2.8044    0.0000 </r>
       <r>   -1.5917    0.0000 </r>
       <r>   -1.4240    0.0000 </r>
       <r>   -0.8405    0.0000 </r>
       <r>   -0.8194    0.0000 </r>
       <r>   -0.7064    0.0000 </r>
       <r>   -0.6684    0.0000 </r>
       <r>   -0.1291    0.0000 </r>
       <r>   -0.0066    0.0000 </r>
       <r>    0.2930    0.0000 </r>
       <r>    0.7047    0.0000 </r>
       <r>    0.7265    0.0000 </r>
       <r>    1.1018    0.0000 </r>
       <r>    1.1744    0.0000 </r>
       <r>    1.3660    0.0000 </r>
       <r>    1.4646    0.0000 </r>
       <r>    1.5575    0.0000 </r>
       <r>    1.5764    0.0000 </r>
       <r>    1.7163    0.0000 </r>
       <r>    1.8261    0.0000 </r>
       <r>    2.1712    0.0000 </r>
       <r>    2.3352    0.0000 </r>
       <r>    2.3959    0.0000 </r>
       <r>    2.6121    0.0000 </r>
       <r>    2.7563    0.0000 </r>
       <r>    2.8364    0.0000 </r>
       <r>    3.2033    0.0000 </r>
       <r>    3.5967    0.0000 </r>
       <r>    4.1772    0.0000 </r>
      </set>
      <set comment="kpoint 5">
       <r>  -31.7395    1.0000 </r>
       <r>  -22.0808    1.0000 </r>
       <r>  -22.0079    1.0000 </r>
       <r>  -21.8020    1.0000 </r>
       <r>  -21.1721    1.0000 </r>
       <r>  -21.1507    1.0000 </r>
       <r>  -20.8678    1.0000 </r>
       <r>  -20.4130    1.0000 </r>
       <r>  -20.3389    1.0000 </r>
       <r>  -20.1724    1.0000 </r>
       <r>  -20.1508    1.0000 </r>
       <r>  -20.1433    1.0000 </r>
       <r>  -19.5673    1.0000 </r>
       <r>  -18.8260    1.0000 </r>
       <r>  -18.6745    1.0000 </r>
       <r>  -18.3728    1.0000 </r>
       <r>  -18.3493    1.0000 </r>
       <r>  -18.3368    1.0000 </r>
       <r>  -17.9303    1.0000 </r>
       <r>  -17.8015    1.0000 </r>
       <r>  -17.6018    1.0000 </r>
       <r>  -17.2620    1.0000 </r>
       <r>  -17.1535    1.0000 </r>
       <r>  -17.1210    1.0000 </r>
       <r>  -16.5434    1.0000 </r>
       <r>  -16.4378    1.0000 </r>
       <r>  -16.2846    1.0000 </r>
       <r>  -15.8087    1.0000 </r>
       <r>  -15.6292    1.0000 </r>
       <r>  -15.1756    1.0000 </r>
       <r>  -14.9699    1.0000 </r>
       <r>  -14.6530    1.0000 </r>
       <r>  -13.9604    1.0000 </r>
       <r>  -13.9396    1.0000 </r>
       <r>  -13.9250    1.0000 </r>
       <r>  -13.8738    1.0000 </r>
       <r>  -13.8642    1.0000 </r>
       <r>  -13.7924    1.0000 </r>
       <r>  -13.6737    1.0000 </r>
       <r>  -13.4953    1.0000 </r>
       <r>  -13.0381    1.0000 </r>
       <r>  -12.4752    1.0000 </r>
       <r>  -12.2543    1.0000 </r>
       <r>  -12.0719    1.0000 </r>
       <r>  -11.8239    1.0000 </r>
       <r>  -11.7730    1.0000 </r>
       <r>  -11.5636    1.0000 </r>
       <r>  -11.5460    1.0000 </r>
       <r>  -11.5231    1.0000 </r>
       <r>  -10.9298    1.0000 </r>
       <r>  -10.8183    1.0000 </r>
       <r>  -10.5302    1.0000 </r>
       <r>  -10.2065    1.0000 </r>
       <r>  -10.2042    1.0000 </r>
       <r>  -10.1945    1.0000 </r>
       <r>  -10.0951    1.0000 </r>
       <r>  -10.0522    1.0000 </r>
       <r>  -10.0221    1.0000 </r>
       <r>   -9.9034    1.0000 </r>
       <r>   -9.7524    1.0000 </r>
       <r>   -9.7486    1.0000 </r>
       <r>   -9.5647    1.0000 </r>
       <r>   -9.4412    1.0000 </r>
       <r>   -9.4077    1.0000 </r>
       <r>   -9.1976    1.0000 </r>
       <r>   -9.0466    1.0000 </r>
       <r>   -9.0336    1.0000 </r>
       <r>   -8.9025    1.0000 </r>
       <r>   -8.8854    1.0000 </r>
       <r>   -8.6884    1.0000 </r>
       <r>   -8.6375    1.0000 </r>
       <r>   -8.6356    1.0000 </r>
       <r>   -8.6244    1.0000 </r>
       <r>   -8.5827    1.0000 </r>
       <r>   -8.3746    1.0000 </r>
       <r>   -8.2523    1.0000 </r>
       <r>   -8.1651    1.0000 </r>
       <r>   -8.0348    1.0000 </r>
       <r>   -7.9835    1.0000 </r>
       <r>   -7.8798    1.0000 </r>
       <r>   -7.8584    1.0000 </r>
       <r>   -7.8551    1.0000 </r>
       <r>   -7.2258    1.0000 </r>
       <r>   -7.1861    1.0000 </r>
       <r>   -7.1276    1.0000 </r>
       <r>   -6.8862    1.0000 </r>
       <r>   -6.7223    1.0000 </r>
       <r>   -6.6133    1.0000 </r>
       <r>   -6.4606    1.0000 </r>
       <r>   -6.2657    1.0000 </r>
       <r>   -6.1011    1.0000 </r>
       <r>   -5.9169    1.0000 </r>
       <r>   -5.9115    1.0000 </r>
       <r>   -5.8981    1.0000 </r>
       <r>   -5.4515    1.0000 </r>
       <r>   -5.4258    1.0000 </r>
       <r>   -5.1220    1.0000 </r>
       <r>   -5.0145    1.0000 </r>
       <r>   -4.9806    1.0000 </r>
       <r>   -4.9581    1.0000 </r>
       <r>   -3.7326    1.0000 </r>
       <r>   -3.4592    1.0000 </r>
       <r>   -3.2805    1.0000 </r>
       <r>   -2.3879    0.0000 </r>
       <r>   -2.2247    0.0000 </r>
       <r>   -0.9290    0.0000 </r>
       <r>   -0.8826    0.0000 </r>
       <r>   -0.8681    0.0000 </r>
       <r>   -0.5388    0.0000 </r>
       <r>   -0.2645    0.0000 </r>
       <r>   -0.2114    0.0000 </r>
       <r>    0.2516    0.0000 </r>
       <r>    0.2578    0.0000 </r>
       <r>    0.2601    0.0000 </r>
       <r>    0.5986    0.0000 </r>
       <r>    0.7920    0.0000 </r>
       <r>    0.9481    0.0000 </r>
       <r>    0.9739    0.0000 </r>
       <r>    1.0636    0.0000 </r>
       <r>    1.7348    0.0000 </r>
       <r>    1.7445    0.0000 </r>
       <r>    1.7664    0.0000 </r>
       <r>    1.8272    0.0000 </r>
       <r>    2.1119    0.0000 </r>
       <r>    2.1160    0.0000 </r>
       <r>    2.1238    0.0000 </r>
       <r>    2.2469    0.0000 </r>
       <r>    2.2484    0.0000 </r>
       <r>    2.3610    0.0000 </r>
       <r>    2.9988    0.0000 </r>
       <r>    3.0111    0.0000 </r>
       <r>    3.0356    0.0000 </r>
      </set>
     </set>
    </set>
   </array>
  </eigenvalues>
  <separator name="orbital magnetization" >
   <v name="MAGDIPOLOUT">      0.00000000      0.00000000      0.00000000</v>
  </separator>
  <dos>
   <i name="efermi">     -3.01788794 </i>
   <total>
    <array>
     <dimension dim="1">gridpoints</dimension>
     <dimension dim="2">spin</dimension>
     <field>energy</field>
     <field>total</field>
     <field>integrated</field>
     <set>
      <set comment="spin 1">
       <r>   -33.5353     0.0000     0.0000 </r>
       <r>   -33.4036     0.0000     0.0000 </r>
       <r>   -33.2719     0.0000     0.0000 </r>
       <r>   -33.1402     0.0000     0.0000 </r>
       <r>   -33.0085     0.0000     0.0000 </r>
       <r>   -32.8768     0.0000     0.0000 </r>
       <r>   -32.7452     0.0000     0.0000 </r>
       <r>   -32.6135     0.0000     0.0000 </r>
       <r>   -32.4818     0.0000     0.0000 </r>
       <r>   -32.3501     0.0000     0.0000 </r>
       <r>   -32.2184     0.0000     0.0000 </r>
       <r>   -32.0867     0.0000     0.0000 </r>
       <r>   -31.9550     0.0000     0.0000 </r>
       <r>   -31.8233     0.1345     0.0177 </r>
       <r>   -31.6916    13.7158     1.8240 </r>
       <r>   -31.5599     1.3364     2.0000 </r>
       <r>   -31.4282     0.0000     2.0000 </r>
       <r>   -31.2965     0.0000     2.0000 </r>
       <r>   -31.1648     0.0000     2.0000 </r>
       <r>   -31.0331     0.0000     2.0000 </r>
       <r>   -30.9014     0.0000     2.0000 </r>
       <r>   -30.7697     0.0000     2.0000 </r>
       <r>   -30.6380     0.0000     2.0000 </r>
       <r>   -30.5063     0.0000     2.0000 </r>
       <r>   -30.3747     0.0000     2.0000 </r>
       <r>   -30.2430     0.0000     2.0000 </r>
       <r>   -30.1113     0.0000     2.0000 </r>
       <r>   -29.9796     0.0000     2.0000 </r>
       <r>   -29.8479     0.0000     2.0000 </r>
       <r>   -29.7162     0.0000     2.0000 </r>
       <r>   -29.5845     0.0000     2.0000 </r>
       <r>   -29.4528     0.0000     2.0000 </r>
       <r>   -29.3211     0.0000     2.0000 </r>
       <r>   -29.1894     0.0000     2.0000 </r>
       <r>   -29.0577     0.0000     2.0000 </r>
       <r>   -28.9260     0.0000     2.0000 </r>
       <r>   -28.7943     0.0000     2.0000 </r>
       <r>   -28.6626     0.0000     2.0000 </r>
       <r>   -28.5309     0.0000     2.0000 </r>
       <r>   -28.3992     0.0000     2.0000 </r>
       <r>   -28.2675     0.0000     2.0000 </r>
       <r>   -28.1358     0.0000     2.0000 </r>
       <r>   -28.0041     0.0000     2.0000 </r>
       <r>   -27.8725     0.0000     2.0000 </r>
       <r>   -27.7408     0.0000     2.0000 </r>
       <r>   -27.6091     0.0000     2.0000 </r>
       <r>   -27.4774     0.0000     2.0000 </r>
       <r>   -27.3457     0.0000     2.0000 </r>
       <r>   -27.2140     0.0000     2.0000 </r>
       <r>   -27.0823     0.0000     2.0000 </r>
       <r>   -26.9506     0.0000     2.0000 </r>
       <r>   -26.8189     0.0000     2.0000 </r>
       <r>   -26.6872     0.0000     2.0000 </r>
       <r>   -26.5555     0.0000     2.0000 </r>
       <r>   -26.4238     0.0000     2.0000 </r>
       <r>   -26.2921     0.0000     2.0000 </r>
       <r>   -26.1604     0.0000     2.0000 </r>
       <r>   -26.0287     0.0000     2.0000 </r>
       <r>   -25.8970     0.0000     2.0000 </r>
       <r>   -25.7653     0.0000     2.0000 </r>
       <r>   -25.6336     0.0000     2.0000 </r>
       <r>   -25.5020     0.0000     2.0000 </r>
       <r>   -25.3703     0.0000     2.0000 </r>
       <r>   -25.2386     0.0000     2.0000 </r>
       <r>   -25.1069     0.0000     2.0000 </r>
       <r>   -24.9752     0.0000     2.0000 </r>
       <r>   -24.8435     0.0000     2.0000 </r>
       <r>   -24.7118     0.0000     2.0000 </r>
       <r>   -24.5801     0.0000     2.0000 </r>
       <r>   -24.4484     0.0000     2.0000 </r>
       <r>   -24.3167     0.0000     2.0000 </r>
       <r>   -24.1850     0.0000     2.0000 </r>
       <r>   -24.0533     0.0000     2.0000 </r>
       <r>   -23.9216     0.0000     2.0000 </r>
       <r>   -23.7899     0.0000     2.0000 </r>
       <r>   -23.6582     0.0000     2.0000 </r>
       <r>   -23.5265     0.0000     2.0000 </r>
       <r>   -23.3948     0.0000     2.0000 </r>
       <r>   -23.2631     0.0000     2.0000 </r>
       <r>   -23.1314     0.0000     2.0000 </r>
       <r>   -22.9998     0.0000     2.0000 </r>
       <r>   -22.8681     0.0000     2.0000 </r>
       <r>   -22.7364     0.0000     2.0000 </r>
       <r>   -22.6047     0.0000     2.0000 </r>
       <r>   -22.4730     0.0000     2.0000 </r>
       <r>   -22.3413     0.0408     2.0054 </r>
       <r>   -22.2096     4.4511     2.5916 </r>
       <r>   -22.0779     9.1921     3.8021 </r>
       <r>   -21.9462     4.8944     4.4467 </r>
       <r>   -21.8145    10.7255     5.8592 </r>
       <r>   -21.6828     5.5196     6.5861 </r>
       <r>   -21.5511     7.6793     7.5974 </r>
       <r>   -21.4194    12.7745     9.2797 </r>
       <r>   -21.2877     5.4650     9.9994 </r>
       <r>   -21.1560     3.7728    10.4963 </r>
       <r>   -21.0243     9.2347    11.7124 </r>
       <r>   -20.8926    10.7984    13.1345 </r>
       <r>   -20.7609    10.0015    14.4517 </r>
       <r>   -20.6293     8.3547    15.5519 </r>
       <r>   -20.4976     0.2020    15.5785 </r>
       <r>   -20.3659    13.1428    17.3094 </r>
       <r>   -20.2342     3.9533    17.8300 </r>
       <r>   -20.1025    18.6140    20.2814 </r>
       <r>   -19.9708     1.2511    20.4461 </r>
       <r>   -19.8391     3.5864    20.9184 </r>
       <r>   -19.7074    13.8909    22.7478 </r>
       <r>   -19.5757     8.5304    23.8712 </r>
       <r>   -19.4440     6.0333    24.6658 </r>
       <r>   -19.3123     6.9326    25.5787 </r>
       <r>   -19.1806    13.9919    27.4214 </r>
       <r>   -19.0489     7.5190    28.4116 </r>
       <r>   -18.9172     4.7367    29.0354 </r>
       <r>   -18.7855     5.2133    29.7220 </r>
       <r>   -18.6538     5.2402    30.4121 </r>
       <r>   -18.5221    13.8730    32.2391 </r>
       <r>   -18.3904    11.3912    33.7392 </r>
       <r>   -18.2587     8.6646    34.8803 </r>
       <r>   -18.1271     4.8561    35.5198 </r>
       <r>   -17.9954    15.2888    37.5333 </r>
       <r>   -17.8637     4.7973    38.1651 </r>
       <r>   -17.7320     3.7266    38.6558 </r>
       <r>   -17.6003     5.8827    39.4306 </r>
       <r>   -17.4686    15.7662    41.5069 </r>
       <r>   -17.3369     4.1506    42.0535 </r>
       <r>   -17.2052    21.3704    44.8679 </r>
       <r>   -17.0735     6.8027    45.7637 </r>
       <r>   -16.9418     3.4950    46.2240 </r>
       <r>   -16.8101     8.9010    47.3962 </r>
       <r>   -16.6784     4.1200    47.9388 </r>
       <r>   -16.5467     8.8375    49.1026 </r>
       <r>   -16.4150     8.8822    50.2724 </r>
       <r>   -16.2833     3.0534    50.6745 </r>
       <r>   -16.1516     9.3125    51.9009 </r>
       <r>   -16.0199     5.8604    52.6727 </r>
       <r>   -15.8882    13.0347    54.3893 </r>
       <r>   -15.7565    11.9459    55.9625 </r>
       <r>   -15.6249     2.1375    56.2440 </r>
       <r>   -15.4932     4.2297    56.8010 </r>
       <r>   -15.3615     2.7350    57.1612 </r>
       <r>   -15.2298    10.1912    58.5033 </r>
       <r>   -15.0981    22.0721    61.4101 </r>
       <r>   -14.9664     4.7210    62.0318 </r>
       <r>   -14.8347    11.4873    63.5446 </r>
       <r>   -14.7030    10.4097    64.9155 </r>
       <r>   -14.5713     6.3934    65.7575 </r>
       <r>   -14.4396    15.7661    67.8338 </r>
       <r>   -14.3079     4.6365    68.4444 </r>
       <r>   -14.1762     1.0723    68.5856 </r>
       <r>   -14.0445     4.0357    69.1171 </r>
       <r>   -13.9128    10.0924    70.4462 </r>
       <r>   -13.7811    16.8683    72.6677 </r>
       <r>   -13.6494    17.7108    75.0001 </r>
       <r>   -13.5177     1.7290    75.2278 </r>
       <r>   -13.3860     2.4851    75.5551 </r>
       <r>   -13.2544     0.4975    75.6206 </r>
       <r>   -13.1227    11.2417    77.1011 </r>
       <r>   -12.9910    13.9057    78.9324 </r>
       <r>   -12.8593    20.4344    81.6235 </r>
       <r>   -12.7276     1.1717    81.7778 </r>
       <r>   -12.5959     4.9050    82.4238 </r>
       <r>   -12.4642    17.5490    84.7349 </r>
       <r>   -12.3325    10.8181    86.1596 </r>
       <r>   -12.2008     3.6309    86.6377 </r>
       <r>   -12.0691     3.1971    87.0588 </r>
       <r>   -11.9374    12.1226    88.6553 </r>
       <r>   -11.8057     3.6426    89.1350 </r>
       <r>   -11.6740    16.1328    91.2596 </r>
       <r>   -11.5423    17.6654    93.5860 </r>
       <r>   -11.4106    13.4805    95.3613 </r>
       <r>   -11.2789     8.4793    96.4780 </r>
       <r>   -11.1472     5.5261    97.2058 </r>
       <r>   -11.0155     7.7527    98.2268 </r>
       <r>   -10.8838    13.0778    99.9490 </r>
       <r>   -10.7522    16.8707   102.1708 </r>
       <r>   -10.6205     2.0474   102.4404 </r>
       <r>   -10.4888    20.5296   105.1441 </r>
       <r>   -10.3571     3.8565   105.6520 </r>
       <r>   -10.2254    24.7164   108.9070 </r>
       <r>   -10.0937    25.3534   112.2459 </r>
       <r>    -9.9620    18.3213   114.6587 </r>
       <r>    -9.8303    14.9786   116.6313 </r>
       <r>    -9.6986    17.2695   118.9056 </r>
       <r>    -9.5669    27.7389   122.5587 </r>
       <r>    -9.4352    20.6999   125.2847 </r>
       <r>    -9.3035    27.4551   128.9004 </r>
       <r>    -9.1718    23.4248   131.9853 </r>
       <r>    -9.0401    28.6921   135.7639 </r>
       <r>    -8.9084    20.2447   138.4300 </r>
       <r>    -8.7767    17.3136   140.7101 </r>
       <r>    -8.6450    23.5468   143.8111 </r>
       <r>    -8.5133    17.1720   146.0726 </r>
       <r>    -8.3817    16.6129   148.2604 </r>
       <r>    -8.2500    15.3001   150.2754 </r>
       <r>    -8.1183    16.1213   152.3985 </r>
       <r>    -7.9866    28.5415   156.1572 </r>
       <r>    -7.8549    16.1858   158.2888 </r>
       <r>    -7.7232    16.2622   160.4304 </r>
       <r>    -7.5915     8.1332   161.5015 </r>
       <r>    -7.4598     2.1266   161.7816 </r>
       <r>    -7.3281    17.8800   164.1363 </r>
       <r>    -7.1964    32.2781   168.3871 </r>
       <r>    -7.0647    15.4733   170.4249 </r>
       <r>    -6.9330     4.5978   171.0304 </r>
       <r>    -6.8013    19.1224   173.5487 </r>
       <r>    -6.6696    12.7563   175.2287 </r>
       <r>    -6.5379    15.9356   177.3273 </r>
       <r>    -6.4062     7.1173   178.2646 </r>
       <r>    -6.2745    12.4735   179.9073 </r>
       <r>    -6.1428    15.3947   181.9347 </r>
       <r>    -6.0111    13.6868   183.7372 </r>
       <r>    -5.8795    20.2857   186.4087 </r>
       <r>    -5.7478     7.7009   187.4229 </r>
       <r>    -5.6161    13.6635   189.2223 </r>
       <r>    -5.4844     3.2899   189.6555 </r>
       <r>    -5.3527     7.9150   190.6979 </r>
       <r>    -5.2210     8.6139   191.8323 </r>
       <r>    -5.0893    11.8447   193.3922 </r>
       <r>    -4.9576    18.4798   195.8259 </r>
       <r>    -4.8259    14.9158   197.7902 </r>
       <r>    -4.6942     3.1921   198.2106 </r>
       <r>    -4.5625     0.0883   198.2222 </r>
       <r>    -4.4308     0.0000   198.2222 </r>
       <r>    -4.2991     3.0588   198.6250 </r>
       <r>    -4.1674    17.2999   200.9034 </r>
       <r>    -4.0357     4.9515   201.5554 </r>
       <r>    -3.9040     0.0009   201.5556 </r>
       <r>    -3.7723     0.4400   201.6135 </r>
       <r>    -3.6406     2.9191   201.9979 </r>
       <r>    -3.5090     0.2842   202.0354 </r>
       <r>    -3.3773     4.3791   202.6121 </r>
       <r>    -3.2456    12.3022   204.2322 </r>
       <r>    -3.1139    10.8593   205.6623 </r>
       <r>    -2.9822     2.6194   206.0073 </r>
       <r>    -2.8505     2.5768   206.3466 </r>
       <r>    -2.7188     9.1041   207.5456 </r>
       <r>    -2.5871     0.0758   207.5556 </r>
       <r>    -2.4554     0.0951   207.5681 </r>
       <r>    -2.3237     3.1715   207.9857 </r>
       <r>    -2.1920     2.8847   208.3656 </r>
       <r>    -2.0603     0.5983   208.4444 </r>
       <r>    -1.9286     0.0000   208.4444 </r>
       <r>    -1.7969     0.0000   208.4444 </r>
       <r>    -1.6652     0.1897   208.4694 </r>
       <r>    -1.5335     9.5259   209.7239 </r>
       <r>    -1.4018    12.6437   211.3890 </r>
       <r>    -1.2701     2.9518   211.7778 </r>
       <r>    -1.1384     0.0001   211.7778 </r>
       <r>    -1.0068     1.1882   211.9343 </r>
       <r>    -0.8751    10.9850   213.3809 </r>
       <r>    -0.7434    23.0575   216.4175 </r>
       <r>    -0.6117    18.2860   218.8256 </r>
       <r>    -0.4800     5.3183   219.5260 </r>
       <r>    -0.3483     0.2544   219.5595 </r>
       <r>    -0.2166     4.6076   220.1663 </r>
       <r>    -0.0849    11.3073   221.6554 </r>
       <r>     0.0468    10.3949   223.0244 </r>
       <r>     0.1785     0.8073   223.1307 </r>
       <r>     0.3102    16.2816   225.2749 </r>
       <r>     0.4419     7.5301   226.2666 </r>
       <r>     0.5736     3.2098   226.6893 </r>
       <r>     0.7053    11.1138   228.1529 </r>
       <r>     0.8370    16.8131   230.3671 </r>
       <r>     0.9687     6.2052   231.1843 </r>
       <r>     1.1004    10.9051   232.6205 </r>
       <r>     1.2321    15.0696   234.6050 </r>
       <r>     1.3637     8.3174   235.7004 </r>
       <r>     1.4954    14.9396   237.6679 </r>
       <r>     1.6271    23.1479   240.7163 </r>
       <r>     1.7588    16.5262   242.8927 </r>
       <r>     1.8905    26.4682   246.3785 </r>
       <r>     2.0222     8.3468   247.4777 </r>
       <r>     2.1539    16.7305   249.6810 </r>
       <r>     2.2856    25.8386   253.0838 </r>
       <r>     2.4173    28.4808   256.8346 </r>
       <r>     2.5490     7.3450   257.8019 </r>
       <r>     2.6807     5.2404   258.4920 </r>
       <r>     2.8124    10.9055   259.9282 </r>
       <r>     2.9441     4.2359   260.4860 </r>
       <r>     3.0758     9.2133   261.6994 </r>
       <r>     3.2075     2.7439   262.0607 </r>
       <r>     3.3392     4.5716   262.6628 </r>
       <r>     3.4709     0.0301   262.6668 </r>
       <r>     3.6026     2.6947   263.0216 </r>
       <r>     3.7343     4.0495   263.5549 </r>
       <r>     3.8659     0.0048   263.5556 </r>
       <r>     3.9976     0.0000   263.5556 </r>
       <r>     4.1293     0.2963   263.5946 </r>
       <r>     4.2610     3.0486   263.9961 </r>
       <r>     4.3927     0.0300   264.0000 </r>
       <r>     4.5244     0.0000   264.0000 </r>
       <r>     4.6561     0.0000   264.0000 </r>
       <r>     4.7878     0.0000   264.0000 </r>
       <r>     4.9195     0.0000   264.0000 </r>
       <r>     5.0512     0.0000   264.0000 </r>
       <r>     5.1829     0.0000   264.0000 </r>
       <r>     5.3146     0.0000   264.0000 </r>
       <r>     5.4463     0.0000   264.0000 </r>
       <r>     5.5780     0.0000   264.0000 </r>
       <r>     5.7097     0.0000   264.0000 </r>
       <r>     5.8414     0.0000   264.0000 </r>
       <r>     5.9731     0.0000   264.0000 </r>
      </set>
     </set>
    </array>
   </total>
  </dos>
 </calculation>
 <structure name="finalpos" >
  <crystal>
   <varray name="basis" >
    <v>      12.30000019       0.00000000       0.00000000 </v>
    <v>       6.15000080      10.65211222       0.00000000 </v>
    <v>       0.00000000       0.00000000      20.00000000 </v>
   </varray>
   <i name="volume">   2620.41964732 </i>
   <varray name="rec_basis" >
    <v>       0.08130081      -0.04693905       0.00000000 </v>
    <v>       0.00000000       0.09387809       0.00000000 </v>
    <v>       0.00000000       0.00000000       0.05000000 </v>
   </varray>
  </crystal>
  <varray name="positions" >
   <v>       0.00000000       0.00000000       0.41799748 </v>
   <v>       0.20000000       0.00000000       0.41799748 </v>
   <v>       0.40000000       0.00000000       0.41799748 </v>
   <v>       0.60000000       0.00000000       0.41799748 </v>
   <v>       0.80000000       0.00000000       0.41799748 </v>
   <v>       0.00000000       0.20000000       0.41799748 </v>
   <v>       0.20000000       0.20000000       0.41799748 </v>
   <v>       0.40000000       0.20000000       0.41749748 </v>
   <v>       0.60000000       0.20000000       0.41799748 </v>
   <v>       0.80000000       0.20000000       0.41799748 </v>
   <v>       0.00000000       0.40000000       0.41799748 </v>
   <v>       0.20000000       0.40000000       0.41799748 </v>
   <v>       0.40000000       0.40000000       0.41799748 </v>
   <v>       0.60000000       0.40000000       0.41799748 </v>
   <v>       0.80000000       0.40000000       0.41799748 </v>
   <v>       0.00000000       0.60000000       0.41799748 </v>
   <v>       0.20000000       0.60000000       0.41799748 </v>
   <v>       0.40000000       0.60000000       0.41799748 </v>
   <v>       0.60000000       0.60000000       0.41799748 </v>
   <v>       0.80000000       0.60000000       0.41799748 </v>
   <v>       0.00000000       0.80000000       0.41799748 </v>
   <v>       0.20000000       0.80000000       0.41799748 </v>
   <v>       0.40000000       0.80000000       0.41799748 </v>
   <v>       0.60000000       0.80000000       0.41799748 </v>
   <v>       0.80000000       0.80000000       0.41799748 </v>
   <v>       0.06666667       0.06666660       0.41800609 </v>
   <v>       0.26666667       0.06666660       0.41800609 </v>
   <v>       0.46666667       0.06666660       0.41800609 </v>
   <v>       0.66666667       0.06666660       0.41800609 </v>
   <v>       0.86666667       0.06666660       0.41800609 </v>
   <v>       0.06666667       0.26666660       0.41800609 </v>
   <v>       0.26666667       0.26666660       0.41800609 </v>
   <v>       0.46666667       0.26666660       0.41800609 </v>
   <v>       0.66666667       0.26666660       0.41800609 </v>
   <v>       0.86666667       0.26666660       0.41800609 </v>
   <v>       0.06666667       0.46666660       0.41800609 </v>
   <v>       0.26666667       0.46666660       0.41800609 </v>
   <v>       0.46666667       0.46666660       0.41800609 </v>
   <v>       0.66666667       0.46666660       0.41800609 </v>
   <v>       0.86666667       0.46666660       0.41800609 </v>
   <v>       0.06666667       0.66666660       0.41800609 </v>
   <v>       0.26666667       0.66666660       0.41800609 </v>
   <v>       0.46666667       0.66666660       0.41800609 </v>
   <v>       0.66666667       0.66666660       0.41800609 </v>
   <v>       0.86666667       0.66666660       0.41800609 </v>
   <v>       0.06666667       0.86666660       0.41800609 </v>
   <v>       0.26666667       0.86666660       0.41800609 </v>
   <v>       0.46666667       0.86666660       0.41800609 </v>
   <v>       0.66666667       0.86666660       0.41800609 </v>
   <v>       0.86666667       0.86666660       0.41800609 </v>
   <v>       0.40000000       0.40000000       0.46800609 </v>
  </varray>
  <varray name="velocities" >
   <v>       0.00000000       0.00000000       0.00000000 </v>
   <v>       0.00000000       0.00000000       0.00000000 </v>
   <v>       0.00000000       0.00000000       0.00000000 </v>
   <v>       0.00000000       0.00000000       0.00000000 </v>
   <v>       0.00000000       0.00000000       0.00000000 </v>
   <v>       0.00000000       0.00000000       0.00000000 </v>
   <v>       0.00000000       0.00000000       0.00000000 </v>
   <v>       0.00000000       0.00000000       0.00000000 </v>
   <v>       0.00000000       0.00000000       0.00000000 </v>
   <v>       0.00000000       0.00000000       0.00000000 </v>
   <v>       0.00000000       0.00000000       0.00000000 </v>
   <v>       0.00000000       0.00000000       0.00000000 </v>
   <v>       0.00000000       0.00000000       0.00000000 </v>
   <v>       0.00000000       0.00000000       0.00000000 </v>
   <v>       0.00000000       0.00000000       0.00000000 </v>
   <v>       0.00000000       0.00000000       0.00000000 </v>
   <v>       0.00000000       0.00000000       0.00000000 </v>
   <v>       0.00000000       0.00000000       0.00000000 </v>
   <v>       0.00000000       0.00000000       0.00000000 </v>
   <v>       0.00000000       0.00000000       0.00000000 </v>
   <v>       0.00000000       0.00000000       0.00000000 </v>
   <v>       0.00000000       0.00000000       0.00000000 </v>
   <v>       0.00000000       0.00000000       0.00000000 </v>
   <v>       0.00000000       0.00000000       0.00000000 </v>
   <v>       0.00000000       0.00000000       0.00000000 </v>
   <v>       0.00000000       0.00000000       0.00000000 </v>
   <v>       0.00000000       0.00000000       0.00000000 </v>
   <v>       0.00000000       0.00000000       0.00000000 </v>
   <v>       0.00000000       0.00000000       0.00000000 </v>
   <v>       0.00000000       0.00000000       0.00000000 </v>
   <v>       0.00000000       0.00000000       0.00000000 </v>
   <v>       0.00000000       0.00000000       0.00000000 </v>
   <v>       0.00000000       0.00000000       0.00000000 </v>
   <v>       0.00000000       0.00000000       0.00000000 </v>
   <v>       0.00000000       0.00000000       0.00000000 </v>
   <v>       0.00000000       0.00000000       0.00000000 </v>
   <v>       0.00000000       0.00000000       0.00000000 </v>
   <v>       0.00000000       0.00000000       0.00000000 </v>
   <v>       0.00000000       0.00000000       0.00000000 </v>
   <v>       0.00000000       0.00000000       0.00000000 </v>
   <v>       0.00000000       0.00000000       0.00000000 </v>
   <v>       0.00000000       0.00000000       0.00000000 </v>
   <v>       0.00000000       0.00000000       0.00000000 </v>
   <v>       0.00000000       0.00000000       0.00000000 </v>
   <v>       0.00000000       0.00000000       0.00000000 </v>
   <v>       0.00000000       0.00000000       0.00000000 </v>
   <v>       0.00000000       0.00000000       0.00000000 </v>
   <v>       0.00000000       0.00000000       0.00000000 </v>
   <v>       0.00000000       0.00000000       0.00000000 </v>
   <v>       0.00000000       0.00000000       0.00000000 </v>
   <v>       0.00000000       0.00000000       0.00000000 </v>
  </varray>
 </structure>
</modeling>
