                                                                                     
                             WELCOME TO ABACUS                                       
                                                                                     
               'Atomic-orbital Based Ab-initio Computation at UStc'                  
                                                                                     
                     Website: http://abacus.ustc.edu.cn/                             
                                                                                     
    Version: Parallel, in development
    Processor Number is 8
    Start Time is Mon Apr 11 22:19:37 2022
                                                                                     
 ------------------------------------------------------------------------------------

 READING GENERAL INFORMATION
                           global_out_dir = OUT.ABACUS/
                           global_in_card = INPUT
                               pseudo_dir = 
                              orbital_dir = 
                              pseudo_type = auto
                                    DRANK = 1
                                    DSIZE = 8
                                   DCOLOR = 1
                                    GRANK = 1
                                    GSIZE = 1




 >>>>>>>>>>>>>>>>>>>>>>>>>>>>>>>>>>>>>>>>>>>>>>>>>>>>>>>>>>>>>>>>>>>>>>
 |                                                                    |
 | Reading atom information in unitcell:                              |
 | From the input file and the structure file we know the number of   |
 | different elments in this unitcell, then we list the detail        |
 | information for each element, especially the zeta and polar atomic |
 | orbital number for each element. The total atom number is counted. |
 | We calculate the nearest atom distance for each atom and show the  |
 | Cartesian and Direct coordinates for each atom. We list the file   |
 | address for atomic orbitals. The volume and the lattice vectors    |
 | in real and reciprocal space is also shown.                        |
 |                                                                    |
 <<<<<<<<<<<<<<<<<<<<<<<<<<<<<<<<<<<<<<<<<<<<<<<<<<<<<<<<<<<<<<<<<<<<<<




 READING UNITCELL INFORMATION
                                    ntype = 1
                 atom label for species 1 = C
                  lattice constant (Bohr) = 1.88973
              lattice constant (Angstrom) = 1

 READING ATOM TYPE 1
                               atom label = C
                      L=0, number of zeta = 2
                      L=1, number of zeta = 2
                      L=2, number of zeta = 1
             number of atom for this type = 4
                      start magnetization = FALSE
                      start magnetization = FALSE
                      start magnetization = FALSE
                      start magnetization = FALSE

                        TOTAL ATOM NUMBER = 4

 DIRECT COORDINATES
         atom                   x                   y                   z                 mag                  vx                  vy                  vz
      taud_C1                   0                   0                 0.5                   0                   0                   0                   0
      taud_C2                 0.5                 0.5                 0.5                   0                   0                   0                   0
      taud_C3            0.166667                 0.5                 0.5                   0                   0                   0                   0
      taud_C4            0.666667                   1                 0.5                   0                   0                   0                   0


 READING ORBITAL FILE NAMES FOR LCAO
 orbital file: C_gga_6au_60Ry_2s2p1d.orb

                          Volume (Bohr^3) = 1100.38
                             Volume (A^3) = 163.06

 Lattice vectors: (Cartesian coordinate: in unit of a_0)
             +3.69306            -2.13525                  +0
             +1.23456            +2.13525                  +0
                   +0                  +0            +15.4974
 Reciprocal vectors: (Cartesian coordinate: in unit of 2 pi/a_0)
            +0.202938           -0.117335                  +0
            +0.202938           +0.350994                  -0
                   -0                  -0          +0.0645268




 >>>>>>>>>>>>>>>>>>>>>>>>>>>>>>>>>>>>>>>>>>>>>>>>>>>>>>>>>>>>>>>>>>>>>>
 |                                                                    |
 | Reading pseudopotentials files:                                    |
 | The pseudopotential file is in UPF format. The 'NC' indicates that |
 | the type of pseudopotential is 'norm conserving'. Functional of    |
 | exchange and correlation is decided by 4 given parameters in UPF   |
 | file.  We also read in the 'core correction' if there exists.      |
 | Also we can read the valence electrons number and the maximal      |
 | angular momentum used in this pseudopotential. We also read in the |
 | trail wave function, trail atomic density and local-pseudopotential|
 | on logrithmic grid. The non-local pseudopotential projector is also|
 | read in if there is any.                                           |
 |                                                                    |
 <<<<<<<<<<<<<<<<<<<<<<<<<<<<<<<<<<<<<<<<<<<<<<<<<<<<<<<<<<<<<<<<<<<<<<




                PAO radial cut off (Bohr) = 15

 Read in pseudopotential file is ./C_ONCV_PBE-1.2.upf
                     pseudopotential type = NC
          exchange-correlation functional = PBE
                 nonlocal core correction = 0
                        valence electrons = 4
                                     lmax = 1
                           number of zeta = 0
                     number of projectors = 4
                           L of projector = 0
                           L of projector = 0
                           L of projector = 1
                           L of projector = 1
     initial pseudo atomic orbital number = 0
                                   NLOCAL = 52

 SETUP THE ELECTRONS NUMBER
             electron number of element C = 4
       total electron number of element C = 16
                           occupied bands = 8
                                   NLOCAL = 52
                                   NBANDS = 18
                                   NBANDS = 18
 DONE : SETUP UNITCELL Time : 0.0047828 (SEC)





 >>>>>>>>>>>>>>>>>>>>>>>>>>>>>>>>>>>>>>>>>>>>>>>>>>>>>>>>>>>>>>>>>>>>>>
 |                                                                    |
 | Setup K-points                                                     |
 | We setup the k-points according to input parameters.               |
 | The reduced k-points are set according to symmetry operations.     |
 | We treat the spin as another set of k-points.                      |
 |                                                                    |
 <<<<<<<<<<<<<<<<<<<<<<<<<<<<<<<<<<<<<<<<<<<<<<<<<<<<<<<<<<<<<<<<<<<<<<





 SETUP K-POINTS
                                    nspin = 1
                                   nkstot = 201

  KPOINTS            DIRECT_X            DIRECT_Y            DIRECT_Z              WEIGHT
        1                 0.5                 0.5                   0                   1
        2               0.495               0.495                   0                   1
        3                0.49                0.49                   0                   1
        4               0.485               0.485                   0                   1
        5                0.48                0.48                   0                   1
        6               0.475               0.475                   0                   1
        7                0.47                0.47                   0                   1
        8               0.465               0.465                   0                   1
        9                0.46                0.46                   0                   1
       10               0.455               0.455                   0                   1
       11                0.45                0.45                   0                   1
       12               0.445               0.445                   0                   1
       13                0.44                0.44                   0                   1
       14               0.435               0.435                   0                   1
       15                0.43                0.43                   0                   1
       16               0.425               0.425                   0                   1
       17                0.42                0.42                   0                   1
       18               0.415               0.415                   0                   1
       19                0.41                0.41                   0                   1
       20               0.405               0.405                   0                   1
       21                 0.4                 0.4                   0                   1
       22               0.395               0.395                   0                   1
       23                0.39                0.39                   0                   1
       24               0.385               0.385                   0                   1
       25                0.38                0.38                   0                   1
       26               0.375               0.375                   0                   1
       27                0.37                0.37                   0                   1
       28               0.365               0.365                   0                   1
       29                0.36                0.36                   0                   1
       30               0.355               0.355                   0                   1
       31                0.35                0.35                   0                   1
       32               0.345               0.345                   0                   1
       33                0.34                0.34                   0                   1
       34               0.335               0.335                   0                   1
       35                0.33                0.33                   0                   1
       36               0.325               0.325                   0                   1
       37                0.32                0.32                   0                   1
       38               0.315               0.315                   0                   1
       39                0.31                0.31                   0                   1
       40               0.305               0.305                   0                   1
       41                 0.3                 0.3                   0                   1
       42               0.295               0.295                   0                   1
       43                0.29                0.29                   0                   1
       44               0.285               0.285                   0                   1
       45                0.28                0.28                   0                   1
       46               0.275               0.275                   0                   1
       47                0.27                0.27                   0                   1
       48               0.265               0.265                   0                   1
       49                0.26                0.26                   0                   1
       50               0.255               0.255                   0                   1
       51                0.25                0.25                   0                   1
       52               0.245               0.245                   0                   1
       53                0.24                0.24                   0                   1
       54               0.235               0.235                   0                   1
       55                0.23                0.23                   0                   1
       56               0.225               0.225                   0                   1
       57                0.22                0.22                   0                   1
       58               0.215               0.215                   0                   1
       59                0.21                0.21                   0                   1
       60               0.205               0.205                   0                   1
       61                 0.2                 0.2                   0                   1
       62               0.195               0.195                   0                   1
       63                0.19                0.19                   0                   1
       64               0.185               0.185                   0                   1
       65                0.18                0.18                   0                   1
       66               0.175               0.175                   0                   1
       67                0.17                0.17                   0                   1
       68               0.165               0.165                   0                   1
       69                0.16                0.16                   0                   1
       70               0.155               0.155                   0                   1
       71                0.15                0.15                   0                   1
       72               0.145               0.145                   0                   1
       73                0.14                0.14                   0                   1
       74               0.135               0.135                   0                   1
       75                0.13                0.13                   0                   1
       76               0.125               0.125                   0                   1
       77                0.12                0.12                   0                   1
       78               0.115               0.115                   0                   1
       79                0.11                0.11                   0                   1
       80               0.105               0.105                   0                   1
       81                 0.1                 0.1                   0                   1
       82               0.095               0.095                   0                   1
       83                0.09                0.09                   0                   1
       84               0.085               0.085                   0                   1
       85                0.08                0.08                   0                   1
       86               0.075               0.075                   0                   1
       87                0.07                0.07                   0                   1
       88               0.065               0.065                   0                   1
       89                0.06                0.06                   0                   1
       90               0.055               0.055                   0                   1
       91                0.05                0.05                   0                   1
       92               0.045               0.045                   0                   1
       93                0.04                0.04                   0                   1
       94               0.035               0.035                   0                   1
       95                0.03                0.03                   0                   1
       96               0.025               0.025                   0                   1
       97                0.02                0.02                   0                   1
       98               0.015               0.015                   0                   1
       99                0.01                0.01                   0                   1
      100               0.005               0.005                   0                   1
      101                   0                   0                   0                   1
      102                   0          0.00666667                   0                   1
      103                   0           0.0133333                   0                   1
      104                   0                0.02                   0                   1
      105                   0           0.0266667                   0                   1
      106                   0           0.0333333                   0                   1
      107                   0                0.04                   0                   1
      108                   0           0.0466667                   0                   1
      109                   0           0.0533333                   0                   1
      110                   0                0.06                   0                   1
      111                   0           0.0666667                   0                   1
      112                   0           0.0733333                   0                   1
      113                   0                0.08                   0                   1
      114                   0           0.0866667                   0                   1
      115                   0           0.0933333                   0                   1
      116                   0                 0.1                   0                   1
      117                   0            0.106667                   0                   1
      118                   0            0.113333                   0                   1
      119                   0                0.12                   0                   1
      120                   0            0.126667                   0                   1
      121                   0            0.133333                   0                   1
      122                   0                0.14                   0                   1
      123                   0            0.146667                   0                   1
      124                   0            0.153333                   0                   1
      125                   0                0.16                   0                   1
      126                   0            0.166667                   0                   1
      127                   0            0.173333                   0                   1
      128                   0                0.18                   0                   1
      129                   0            0.186667                   0                   1
      130                   0            0.193333                   0                   1
      131                   0                 0.2                   0                   1
      132                   0            0.206667                   0                   1
      133                   0            0.213333                   0                   1
      134                   0                0.22                   0                   1
      135                   0            0.226667                   0                   1
      136                   0            0.233333                   0                   1
      137                   0                0.24                   0                   1
      138                   0            0.246667                   0                   1
      139                   0            0.253333                   0                   1
      140                   0                0.26                   0                   1
      141                   0            0.266667                   0                   1
      142                   0            0.273333                   0                   1
      143                   0                0.28                   0                   1
      144                   0            0.286667                   0                   1
      145                   0            0.293333                   0                   1
      146                   0                 0.3                   0                   1
      147                   0            0.306667                   0                   1
      148                   0            0.313333                   0                   1
      149                   0                0.32                   0                   1
      150                   0            0.326667                   0                   1
      151                   0            0.333333                   0                   1
      152                   0                0.34                   0                   1
      153                   0            0.346667                   0                   1
      154                   0            0.353333                   0                   1
      155                   0                0.36                   0                   1
      156                   0            0.366667                   0                   1
      157                   0            0.373333                   0                   1
      158                   0                0.38                   0                   1
      159                   0            0.386667                   0                   1
      160                   0            0.393333                   0                   1
      161                   0                 0.4                   0                   1
      162                   0            0.406667                   0                   1
      163                   0            0.413333                   0                   1
      164                   0                0.42                   0                   1
      165                   0            0.426667                   0                   1
      166                   0            0.433333                   0                   1
      167                   0                0.44                   0                   1
      168                   0            0.446667                   0                   1
      169                   0            0.453333                   0                   1
      170                   0                0.46                   0                   1
      171                   0            0.466667                   0                   1
      172                   0            0.473333                   0                   1
      173                   0                0.48                   0                   1
      174                   0            0.486667                   0                   1
      175                   0            0.493333                   0                   1
      176                   0                 0.5                   0                   1
      177                   0            0.506667                   0                   1
      178                   0            0.513333                   0                   1
      179                   0                0.52                   0                   1
      180                   0            0.526667                   0                   1
      181                   0            0.533333                   0                   1
      182                   0                0.54                   0                   1
      183                   0            0.546667                   0                   1
      184                   0            0.553333                   0                   1
      185                   0                0.56                   0                   1
      186                   0            0.566667                   0                   1
      187                   0            0.573333                   0                   1
      188                   0                0.58                   0                   1
      189                   0            0.586667                   0                   1
      190                   0            0.593333                   0                   1
      191                   0                 0.6                   0                   1
      192                   0            0.606667                   0                   1
      193                   0            0.613333                   0                   1
      194                   0                0.62                   0                   1
      195                   0            0.626667                   0                   1
      196                   0            0.633333                   0                   1
      197                   0                0.64                   0                   1
      198                   0            0.646667                   0                   1
      199                   0            0.653333                   0                   1
      200                   0                0.66                   0                   1
      201                   0            0.666667                   0                   1

           k-point number in this process = 201
       minimum distributed K point number = 201

  KPOINTS         CARTESIAN_X         CARTESIAN_Y         CARTESIAN_Z              WEIGHT
        1            0.202938             0.11683                   0          0.00995025
        2            0.200908            0.115661                   0          0.00995025
        3            0.198879            0.114493                   0          0.00995025
        4             0.19685            0.113325                   0          0.00995025
        5             0.19482            0.112156                   0          0.00995025
        6            0.192791            0.110988                   0          0.00995025
        7            0.190761             0.10982                   0          0.00995025
        8            0.188732            0.108652                   0          0.00995025
        9            0.186703            0.107483                   0          0.00995025
       10            0.184673            0.106315                   0          0.00995025
       11            0.182644            0.105147                   0          0.00995025
       12            0.180615            0.103978                   0          0.00995025
       13            0.178585             0.10281                   0          0.00995025
       14            0.176556            0.101642                   0          0.00995025
       15            0.174526            0.100473                   0          0.00995025
       16            0.172497           0.0993052                   0          0.00995025
       17            0.170468           0.0981369                   0          0.00995025
       18            0.168438           0.0969686                   0          0.00995025
       19            0.166409           0.0958003                   0          0.00995025
       20             0.16438            0.094632                   0          0.00995025
       21             0.16235           0.0934637                   0          0.00995025
       22            0.160321           0.0922954                   0          0.00995025
       23            0.158291           0.0911271                   0          0.00995025
       24            0.156262           0.0899588                   0          0.00995025
       25            0.154233           0.0887905                   0          0.00995025
       26            0.152203           0.0876222                   0          0.00995025
       27            0.150174           0.0864539                   0          0.00995025
       28            0.148144           0.0852856                   0          0.00995025
       29            0.146115           0.0841173                   0          0.00995025
       30            0.144086            0.082949                   0          0.00995025
       31            0.142056           0.0817807                   0          0.00995025
       32            0.140027           0.0806124                   0          0.00995025
       33            0.137998           0.0794441                   0          0.00995025
       34            0.135968           0.0782758                   0          0.00995025
       35            0.133939           0.0771076                   0          0.00995025
       36            0.131909           0.0759393                   0          0.00995025
       37             0.12988            0.074771                   0          0.00995025
       38            0.127851           0.0736027                   0          0.00995025
       39            0.125821           0.0724344                   0          0.00995025
       40            0.123792           0.0712661                   0          0.00995025
       41            0.121763           0.0700978                   0          0.00995025
       42            0.119733           0.0689295                   0          0.00995025
       43            0.117704           0.0677612                   0          0.00995025
       44            0.115674           0.0665929                   0          0.00995025
       45            0.113645           0.0654246                   0          0.00995025
       46            0.111616           0.0642563                   0          0.00995025
       47            0.109586            0.063088                   0          0.00995025
       48            0.107557           0.0619197                   0          0.00995025
       49            0.105528           0.0607514                   0          0.00995025
       50            0.103498           0.0595831                   0          0.00995025
       51            0.101469           0.0584148                   0          0.00995025
       52           0.0994395           0.0572465                   0          0.00995025
       53           0.0974101           0.0560782                   0          0.00995025
       54           0.0953807           0.0549099                   0          0.00995025
       55           0.0933513           0.0537416                   0          0.00995025
       56            0.091322           0.0525733                   0          0.00995025
       57           0.0892926            0.051405                   0          0.00995025
       58           0.0872632           0.0502367                   0          0.00995025
       59           0.0852338           0.0490684                   0          0.00995025
       60           0.0832044           0.0479001                   0          0.00995025
       61           0.0811751           0.0467318                   0          0.00995025
       62           0.0791457           0.0455636                   0          0.00995025
       63           0.0771163           0.0443953                   0          0.00995025
       64           0.0750869            0.043227                   0          0.00995025
       65           0.0730576           0.0420587                   0          0.00995025
       66           0.0710282           0.0408904                   0          0.00995025
       67           0.0689988           0.0397221                   0          0.00995025
       68           0.0669694           0.0385538                   0          0.00995025
       69           0.0649401           0.0373855                   0          0.00995025
       70           0.0629107           0.0362172                   0          0.00995025
       71           0.0608813           0.0350489                   0          0.00995025
       72           0.0588519           0.0338806                   0          0.00995025
       73           0.0568225           0.0327123                   0          0.00995025
       74           0.0547932            0.031544                   0          0.00995025
       75           0.0527638           0.0303757                   0          0.00995025
       76           0.0507344           0.0292074                   0          0.00995025
       77            0.048705           0.0280391                   0          0.00995025
       78           0.0466757           0.0268708                   0          0.00995025
       79           0.0446463           0.0257025                   0          0.00995025
       80           0.0426169           0.0245342                   0          0.00995025
       81           0.0405875           0.0233659                   0          0.00995025
       82           0.0385582           0.0221976                   0          0.00995025
       83           0.0365288           0.0210293                   0          0.00995025
       84           0.0344994            0.019861                   0          0.00995025
       85             0.03247           0.0186927                   0          0.00995025
       86           0.0304407           0.0175244                   0          0.00995025
       87           0.0284113           0.0163561                   0          0.00995025
       88           0.0263819           0.0151879                   0          0.00995025
       89           0.0243525           0.0140196                   0          0.00995025
       90           0.0223231           0.0128513                   0          0.00995025
       91           0.0202938            0.011683                   0          0.00995025
       92           0.0182644           0.0105147                   0          0.00995025
       93            0.016235          0.00934637                   0          0.00995025
       94           0.0142056          0.00817807                   0          0.00995025
       95           0.0121763          0.00700978                   0          0.00995025
       96           0.0101469          0.00584148                   0          0.00995025
       97          0.00811751          0.00467318                   0          0.00995025
       98          0.00608813          0.00350489                   0          0.00995025
       99          0.00405875          0.00233659                   0          0.00995025
      100          0.00202938           0.0011683                   0          0.00995025
      101                   0                   0                   0          0.00995025
      102          0.00135292          0.00233996                   0          0.00995025
      103          0.00270584          0.00467992                   0          0.00995025
      104          0.00405875          0.00701988                   0          0.00995025
      105          0.00541167          0.00935984                   0          0.00995025
      106          0.00676459           0.0116998                   0          0.00995025
      107          0.00811751           0.0140398                   0          0.00995025
      108          0.00947042           0.0163797                   0          0.00995025
      109           0.0108233           0.0187197                   0          0.00995025
      110           0.0121763           0.0210596                   0          0.00995025
      111           0.0135292           0.0233996                   0          0.00995025
      112           0.0148821           0.0257395                   0          0.00995025
      113            0.016235           0.0280795                   0          0.00995025
      114           0.0175879           0.0304195                   0          0.00995025
      115           0.0189408           0.0327594                   0          0.00995025
      116           0.0202938           0.0350994                   0          0.00995025
      117           0.0216467           0.0374393                   0          0.00995025
      118           0.0229996           0.0397793                   0          0.00995025
      119           0.0243525           0.0421193                   0          0.00995025
      120           0.0257054           0.0444592                   0          0.00995025
      121           0.0270584           0.0467992                   0          0.00995025
      122           0.0284113           0.0491391                   0          0.00995025
      123           0.0297642           0.0514791                   0          0.00995025
      124           0.0311171           0.0538191                   0          0.00995025
      125             0.03247            0.056159                   0          0.00995025
      126           0.0338229            0.058499                   0          0.00995025
      127           0.0351759           0.0608389                   0          0.00995025
      128           0.0365288           0.0631789                   0          0.00995025
      129           0.0378817           0.0655188                   0          0.00995025
      130           0.0392346           0.0678588                   0          0.00995025
      131           0.0405875           0.0701988                   0          0.00995025
      132           0.0419405           0.0725387                   0          0.00995025
      133           0.0432934           0.0748787                   0          0.00995025
      134           0.0446463           0.0772186                   0          0.00995025
      135           0.0459992           0.0795586                   0          0.00995025
      136           0.0473521           0.0818986                   0          0.00995025
      137            0.048705           0.0842385                   0          0.00995025
      138            0.050058           0.0865785                   0          0.00995025
      139           0.0514109           0.0889184                   0          0.00995025
      140           0.0527638           0.0912584                   0          0.00995025
      141           0.0541167           0.0935984                   0          0.00995025
      142           0.0554696           0.0959383                   0          0.00995025
      143           0.0568225           0.0982783                   0          0.00995025
      144           0.0581755            0.100618                   0          0.00995025
      145           0.0595284            0.102958                   0          0.00995025
      146           0.0608813            0.105298                   0          0.00995025
      147           0.0622342            0.107638                   0          0.00995025
      148           0.0635871            0.109978                   0          0.00995025
      149           0.0649401            0.112318                   0          0.00995025
      150            0.066293            0.114658                   0          0.00995025
      151           0.0676459            0.116998                   0          0.00995025
      152           0.0689988            0.119338                   0          0.00995025
      153           0.0703517            0.121678                   0          0.00995025
      154           0.0717046            0.124018                   0          0.00995025
      155           0.0730576            0.126358                   0          0.00995025
      156           0.0744105            0.128698                   0          0.00995025
      157           0.0757634            0.131038                   0          0.00995025
      158           0.0771163            0.133378                   0          0.00995025
      159           0.0784692            0.135718                   0          0.00995025
      160           0.0798222            0.138058                   0          0.00995025
      161           0.0811751            0.140398                   0          0.00995025
      162            0.082528            0.142737                   0          0.00995025
      163           0.0838809            0.145077                   0          0.00995025
      164           0.0852338            0.147417                   0          0.00995025
      165           0.0865867            0.149757                   0          0.00995025
      166           0.0879397            0.152097                   0          0.00995025
      167           0.0892926            0.154437                   0          0.00995025
      168           0.0906455            0.156777                   0          0.00995025
      169           0.0919984            0.159117                   0          0.00995025
      170           0.0933513            0.161457                   0          0.00995025
      171           0.0947042            0.163797                   0          0.00995025
      172           0.0960572            0.166137                   0          0.00995025
      173           0.0974101            0.168477                   0          0.00995025
      174            0.098763            0.170817                   0          0.00995025
      175            0.100116            0.173157                   0          0.00995025
      176            0.101469            0.175497                   0          0.00995025
      177            0.102822            0.177837                   0          0.00995025
      178            0.104175            0.180177                   0          0.00995025
      179            0.105528            0.182517                   0          0.00995025
      180            0.106881            0.184857                   0          0.00995025
      181            0.108233            0.187197                   0          0.00995025
      182            0.109586            0.189537                   0          0.00995025
      183            0.110939            0.191877                   0          0.00995025
      184            0.112292            0.194217                   0          0.00995025
      185            0.113645            0.196557                   0          0.00995025
      186            0.114998            0.198896                   0          0.00995025
      187            0.116351            0.201236                   0          0.00995025
      188            0.117704            0.203576                   0          0.00995025
      189            0.119057            0.205916                   0          0.00995025
      190             0.12041            0.208256                   0          0.00995025
      191            0.121763            0.210596                   0          0.00995025
      192            0.123116            0.212936                   0          0.00995025
      193            0.124468            0.215276                   0          0.00995025
      194            0.125821            0.217616                   0          0.00995025
      195            0.127174            0.219956                   0          0.00995025
      196            0.128527            0.222296                   0          0.00995025
      197             0.12988            0.224636                   0          0.00995025
      198            0.131233            0.226976                   0          0.00995025
      199            0.132586            0.229316                   0          0.00995025
      200            0.133939            0.231656                   0          0.00995025
      201            0.135292            0.233996                   0          0.00995025

  KPOINTS            DIRECT_X            DIRECT_Y            DIRECT_Z              WEIGHT
        1                 0.5                 0.5                   0          0.00995025
        2               0.495               0.495                   0          0.00995025
        3                0.49                0.49                   0          0.00995025
        4               0.485               0.485                   0          0.00995025
        5                0.48                0.48                   0          0.00995025
        6               0.475               0.475                   0          0.00995025
        7                0.47                0.47                   0          0.00995025
        8               0.465               0.465                   0          0.00995025
        9                0.46                0.46                   0          0.00995025
       10               0.455               0.455                   0          0.00995025
       11                0.45                0.45                   0          0.00995025
       12               0.445               0.445                   0          0.00995025
       13                0.44                0.44                   0          0.00995025
       14               0.435               0.435                   0          0.00995025
       15                0.43                0.43                   0          0.00995025
       16               0.425               0.425                   0          0.00995025
       17                0.42                0.42                   0          0.00995025
       18               0.415               0.415                   0          0.00995025
       19                0.41                0.41                   0          0.00995025
       20               0.405               0.405                   0          0.00995025
       21                 0.4                 0.4                   0          0.00995025
       22               0.395               0.395                   0          0.00995025
       23                0.39                0.39                   0          0.00995025
       24               0.385               0.385                   0          0.00995025
       25                0.38                0.38                   0          0.00995025
       26               0.375               0.375                   0          0.00995025
       27                0.37                0.37                   0          0.00995025
       28               0.365               0.365                   0          0.00995025
       29                0.36                0.36                   0          0.00995025
       30               0.355               0.355                   0          0.00995025
       31                0.35                0.35                   0          0.00995025
       32               0.345               0.345                   0          0.00995025
       33                0.34                0.34                   0          0.00995025
       34               0.335               0.335                   0          0.00995025
       35                0.33                0.33                   0          0.00995025
       36               0.325               0.325                   0          0.00995025
       37                0.32                0.32                   0          0.00995025
       38               0.315               0.315                   0          0.00995025
       39                0.31                0.31                   0          0.00995025
       40               0.305               0.305                   0          0.00995025
       41                 0.3                 0.3                   0          0.00995025
       42               0.295               0.295                   0          0.00995025
       43                0.29                0.29                   0          0.00995025
       44               0.285               0.285                   0          0.00995025
       45                0.28                0.28                   0          0.00995025
       46               0.275               0.275                   0          0.00995025
       47                0.27                0.27                   0          0.00995025
       48               0.265               0.265                   0          0.00995025
       49                0.26                0.26                   0          0.00995025
       50               0.255               0.255                   0          0.00995025
       51                0.25                0.25                   0          0.00995025
       52               0.245               0.245                   0          0.00995025
       53                0.24                0.24                   0          0.00995025
       54               0.235               0.235                   0          0.00995025
       55                0.23                0.23                   0          0.00995025
       56               0.225               0.225                   0          0.00995025
       57                0.22                0.22                   0          0.00995025
       58               0.215               0.215                   0          0.00995025
       59                0.21                0.21                   0          0.00995025
       60               0.205               0.205                   0          0.00995025
       61                 0.2                 0.2                   0          0.00995025
       62               0.195               0.195                   0          0.00995025
       63                0.19                0.19                   0          0.00995025
       64               0.185               0.185                   0          0.00995025
       65                0.18                0.18                   0          0.00995025
       66               0.175               0.175                   0          0.00995025
       67                0.17                0.17                   0          0.00995025
       68               0.165               0.165                   0          0.00995025
       69                0.16                0.16                   0          0.00995025
       70               0.155               0.155                   0          0.00995025
       71                0.15                0.15                   0          0.00995025
       72               0.145               0.145                   0          0.00995025
       73                0.14                0.14                   0          0.00995025
       74               0.135               0.135                   0          0.00995025
       75                0.13                0.13                   0          0.00995025
       76               0.125               0.125                   0          0.00995025
       77                0.12                0.12                   0          0.00995025
       78               0.115               0.115                   0          0.00995025
       79                0.11                0.11                   0          0.00995025
       80               0.105               0.105                   0          0.00995025
       81                 0.1                 0.1                   0          0.00995025
       82               0.095               0.095                   0          0.00995025
       83                0.09                0.09                   0          0.00995025
       84               0.085               0.085                   0          0.00995025
       85                0.08                0.08                   0          0.00995025
       86               0.075               0.075                   0          0.00995025
       87                0.07                0.07                   0          0.00995025
       88               0.065               0.065                   0          0.00995025
       89                0.06                0.06                   0          0.00995025
       90               0.055               0.055                   0          0.00995025
       91                0.05                0.05                   0          0.00995025
       92               0.045               0.045                   0          0.00995025
       93                0.04                0.04                   0          0.00995025
       94               0.035               0.035                   0          0.00995025
       95                0.03                0.03                   0          0.00995025
       96               0.025               0.025                   0          0.00995025
       97                0.02                0.02                   0          0.00995025
       98               0.015               0.015                   0          0.00995025
       99                0.01                0.01                   0          0.00995025
      100               0.005               0.005                   0          0.00995025
      101                   0                   0                   0          0.00995025
      102                   0          0.00666667                   0          0.00995025
      103                   0           0.0133333                   0          0.00995025
      104                   0                0.02                   0          0.00995025
      105                   0           0.0266667                   0          0.00995025
      106                   0           0.0333333                   0          0.00995025
      107                   0                0.04                   0          0.00995025
      108                   0           0.0466667                   0          0.00995025
      109                   0           0.0533333                   0          0.00995025
      110                   0                0.06                   0          0.00995025
      111                   0           0.0666667                   0          0.00995025
      112                   0           0.0733333                   0          0.00995025
      113                   0                0.08                   0          0.00995025
      114                   0           0.0866667                   0          0.00995025
      115                   0           0.0933333                   0          0.00995025
      116                   0                 0.1                   0          0.00995025
      117                   0            0.106667                   0          0.00995025
      118                   0            0.113333                   0          0.00995025
      119                   0                0.12                   0          0.00995025
      120                   0            0.126667                   0          0.00995025
      121                   0            0.133333                   0          0.00995025
      122                   0                0.14                   0          0.00995025
      123                   0            0.146667                   0          0.00995025
      124                   0            0.153333                   0          0.00995025
      125                   0                0.16                   0          0.00995025
      126                   0            0.166667                   0          0.00995025
      127                   0            0.173333                   0          0.00995025
      128                   0                0.18                   0          0.00995025
      129                   0            0.186667                   0          0.00995025
      130                   0            0.193333                   0          0.00995025
      131                   0                 0.2                   0          0.00995025
      132                   0            0.206667                   0          0.00995025
      133                   0            0.213333                   0          0.00995025
      134                   0                0.22                   0          0.00995025
      135                   0            0.226667                   0          0.00995025
      136                   0            0.233333                   0          0.00995025
      137                   0                0.24                   0          0.00995025
      138                   0            0.246667                   0          0.00995025
      139                   0            0.253333                   0          0.00995025
      140                   0                0.26                   0          0.00995025
      141                   0            0.266667                   0          0.00995025
      142                   0            0.273333                   0          0.00995025
      143                   0                0.28                   0          0.00995025
      144                   0            0.286667                   0          0.00995025
      145                   0            0.293333                   0          0.00995025
      146                   0                 0.3                   0          0.00995025
      147                   0            0.306667                   0          0.00995025
      148                   0            0.313333                   0          0.00995025
      149                   0                0.32                   0          0.00995025
      150                   0            0.326667                   0          0.00995025
      151                   0            0.333333                   0          0.00995025
      152                   0                0.34                   0          0.00995025
      153                   0            0.346667                   0          0.00995025
      154                   0            0.353333                   0          0.00995025
      155                   0                0.36                   0          0.00995025
      156                   0            0.366667                   0          0.00995025
      157                   0            0.373333                   0          0.00995025
      158                   0                0.38                   0          0.00995025
      159                   0            0.386667                   0          0.00995025
      160                   0            0.393333                   0          0.00995025
      161                   0                 0.4                   0          0.00995025
      162                   0            0.406667                   0          0.00995025
      163                   0            0.413333                   0          0.00995025
      164                   0                0.42                   0          0.00995025
      165                   0            0.426667                   0          0.00995025
      166                   0            0.433333                   0          0.00995025
      167                   0                0.44                   0          0.00995025
      168                   0            0.446667                   0          0.00995025
      169                   0            0.453333                   0          0.00995025
      170                   0                0.46                   0          0.00995025
      171                   0            0.466667                   0          0.00995025
      172                   0            0.473333                   0          0.00995025
      173                   0                0.48                   0          0.00995025
      174                   0            0.486667                   0          0.00995025
      175                   0            0.493333                   0          0.00995025
      176                   0                 0.5                   0          0.00995025
      177                   0            0.506667                   0          0.00995025
      178                   0            0.513333                   0          0.00995025
      179                   0                0.52                   0          0.00995025
      180                   0            0.526667                   0          0.00995025
      181                   0            0.533333                   0          0.00995025
      182                   0                0.54                   0          0.00995025
      183                   0            0.546667                   0          0.00995025
      184                   0            0.553333                   0          0.00995025
      185                   0                0.56                   0          0.00995025
      186                   0            0.566667                   0          0.00995025
      187                   0            0.573333                   0          0.00995025
      188                   0                0.58                   0          0.00995025
      189                   0            0.586667                   0          0.00995025
      190                   0            0.593333                   0          0.00995025
      191                   0                 0.6                   0          0.00995025
      192                   0            0.606667                   0          0.00995025
      193                   0            0.613333                   0          0.00995025
      194                   0                0.62                   0          0.00995025
      195                   0            0.626667                   0          0.00995025
      196                   0            0.633333                   0          0.00995025
      197                   0                0.64                   0          0.00995025
      198                   0            0.646667                   0          0.00995025
      199                   0            0.653333                   0          0.00995025
      200                   0                0.66                   0          0.00995025
      201                   0            0.666667                   0          0.00995025
 DONE : INIT K-POINTS Time : 0.00590139 (SEC)





 >>>>>>>>>>>>>>>>>>>>>>>>>>>>>>>>>>>>>>>>>>>>>>>>>>>>>>>>>>>>>>>>>>>>>>
 |                                                                    |
 | Setup plane waves:                                                 |
 | Use the energy cutoff and the lattice vectors to generate the      |
 | dimensions of FFT grid. The number of FFT grid on each processor   |
 | is 'nrxx'. The number of plane wave basis in reciprocal space is   |
 | different for charege/potential and wave functions. We also set    |
 | the 'sticks' for the parallel of FFT.                              |
 |                                                                    |
 <<<<<<<<<<<<<<<<<<<<<<<<<<<<<<<<<<<<<<<<<<<<<<<<<<<<<<<<<<<<<<<<<<<<<<





 SETUP THE PLANE WAVE BASIS
     energy cutoff for wavefunc (unit:Ry) = 60
            [fft grid for wave functions] = 40, 24, 150
          [fft grid for charge/potential] = 40, 24, 150
                      [fft grid division] = 2, 2, 2
      [big fft grid for charge/potential] = 20, 12, 75
                                     nbxx = 2400
                                     nrxx = 19200

 SETUP PLANE WAVES FOR CHARGE/POTENTIAL
                    number of plane waves = 69153
                         number of sticks = 713

 SETUP PLANE WAVES FOR WAVE FUNCTIONS
                    number of plane waves = 11975
                         number of sticks = 219

 PARALLEL PW FOR CHARGE/POTENTIAL
     PROC   COLUMNS(POT)             PW
        1             89           8647
        2             89           8641
        3             89           8643
        4             89           8641
        5             89           8641
        6             89           8641
        7             89           8641
        8             90           8658
 --------------- sum -------------------
        8            713          69153

 PARALLEL PW FOR WAVE FUNCTIONS
     PROC     COLUMNS(W)             PW
        1             27           1491
        2             28           1496
        3             28           1508
        4             28           1508
        5             27           1489
        6             27           1497
        7             27           1491
        8             27           1495
 --------------- sum -------------------
        8            219          11975

 SETUP COORDINATES OF PLANE WAVES
              number of total plane waves = 69153

 SETUP COORDINATES OF PLANE WAVES
                            number of |g| = 4171
                                  max |g| = 21.7052
                                  min |g| = 0
 DONE : INIT PLANEWAVE Time : 0.0388891 (SEC)

 DONE : INIT CHARGE Time : 0.0470541 (SEC)

 DONE : INIT POTENTIAL Time : 0.0473099 (SEC)





 >>>>>>>>>>>>>>>>>>>>>>>>>>>>>>>>>>>>>>>>>>>>>>>>>>>>>>>>>>>>>>>>>>>>>>
 |                                                                    |
 | Setup numerical orbitals:                                          |
 | This part setup: numerical atomic orbitals, non-local projectors   |
 | and neutral potential (1D). The atomic orbitals information        |
 | including the radius, angular momentum and zeta number.            |
 | The neutral potential is the sum of local part of pseudopotential  |
 | and potential given by atomic charge, they will cancel out beyond  |
 | a certain radius cutoff, because the Z/r character.                |
 |                                                                    |
 <<<<<<<<<<<<<<<<<<<<<<<<<<<<<<<<<<<<<<<<<<<<<<<<<<<<<<<<<<<<<<<<<<<<<<





 SETUP ONE DIMENSIONAL ORBITALS/POTENTIAL
                        delta k  (1/Bohr) = 0.01
                        delta r    (Bohr) = 0.01
                        dr_uniform (Bohr) = 0.001
                        rmax       (Bohr) = 30
                                    kmesh = 779
      ORBITAL  L  N      nr      dr    RCUT  CHECK_UNIT    NEW_UNIT
            1  0  0     601    0.01       6           1           1
            2  0  1     601    0.01       6           1           1
            3  1  0     601    0.01       6           1           1
            4  1  1     601    0.01       6           1           1
            5  2  0     601    0.01       6           1           1
 SET NONLOCAL PSEUDOPOTENTIAL PROJECTORS
 max number of nonlocal projetors among all species is 4

 SETUP THE TWO-CENTER INTEGRATION TABLES

 SETUP THE DIVISION OF H/S MATRIX
 divide the H&S matrix using 2D block algorithms.
                                     nb2d = 1
                  trace_loc_row dimension = 52
                  trace_loc_col dimension = 52
                                     nloc = 338
                                 init_chg = file
 try to start potential from file : OUT.ABACUS/SPIN1_CHG
 Find the file, try to read charge from file.
 read in fermi energy = -0.11
 Read in the charge density: OUT.ABACUS/SPIN1_CHG

 -------------------------------------------
 NONSELF-CONSISTENT
 -------------------------------------------




 >>>>>>>>>>>>>>>>>>>>>>>>>>>>>>>>>>>>>>>>>>>>>>>>>>>>>>>>>>>>>>>>>>>>>>
 |                                                                    |
 | Search adjacent atoms:                                             |
 | Set the adjacent atoms for each atom and set the periodic boundary |
 | condition for the atoms on real space FFT grid. For k-dependent    |
 | algorithm, we also need to set the sparse H and S matrix element   |
 | for each atom.                                                     |
 |                                                                    |
 <<<<<<<<<<<<<<<<<<<<<<<<<<<<<<<<<<<<<<<<<<<<<<<<<<<<<<<<<<<<<<<<<<<<<<





 SETUP SEARCHING RADIUS FOR PROGRAM TO SEARCH ADJACENT ATOMS
                  longest orb rcut (Bohr) = 6
   longest nonlocal projector rcut (Bohr) = 1.44
              searching radius is (Bohr)) = 14.9
         searching radius unit is (Bohr)) = 1.89

 SETUP EXTENDED REAL SPACE GRID FOR GRID INTEGRATION
                        [real space grid] = 40, 24, 150
               [big cell numbers in grid] = 20, 12, 75
           [meshcell numbers in big cell] = 2, 2, 2
                      [extended fft grid] = 15, 16, 16
              [dimension of extened grid] = 51, 45, 108
                            UnitCellTotal = 45
 No atoms on this sub-FFT-mesh.
              Atom number in sub-FFT-grid = 0
    Local orbitals number in sub-FFT-grid = 0
                                ParaV.nnr = 5407
                                     nnrg = 0
                                nnrg_last = 0
                                 nnrg_now = 0
 Memory of pvpR : 0 MB
                     Dimension of H and S = 52
                     Dimension of H and S = 52
                     Dimension of H and S = 52
                     Dimension of H and S = 52
                     Dimension of H and S = 52
                     Dimension of H and S = 52
                     Dimension of H and S = 52
                     Dimension of H and S = 52
                     Dimension of H and S = 52
                     Dimension of H and S = 52
                     Dimension of H and S = 52
                     Dimension of H and S = 52
                     Dimension of H and S = 52
                     Dimension of H and S = 52
                     Dimension of H and S = 52
                     Dimension of H and S = 52
                     Dimension of H and S = 52
                     Dimension of H and S = 52
                     Dimension of H and S = 52
                     Dimension of H and S = 52
                     Dimension of H and S = 52
                     Dimension of H and S = 52
                     Dimension of H and S = 52
                     Dimension of H and S = 52
                     Dimension of H and S = 52
                     Dimension of H and S = 52
                     Dimension of H and S = 52
                     Dimension of H and S = 52
                     Dimension of H and S = 52
                     Dimension of H and S = 52
                     Dimension of H and S = 52
                     Dimension of H and S = 52
                     Dimension of H and S = 52
                     Dimension of H and S = 52
                     Dimension of H and S = 52
                     Dimension of H and S = 52
                     Dimension of H and S = 52
                     Dimension of H and S = 52
                     Dimension of H and S = 52
                     Dimension of H and S = 52
                     Dimension of H and S = 52
                     Dimension of H and S = 52
                     Dimension of H and S = 52
                     Dimension of H and S = 52
                     Dimension of H and S = 52
                     Dimension of H and S = 52
                     Dimension of H and S = 52
                     Dimension of H and S = 52
                     Dimension of H and S = 52
                     Dimension of H and S = 52
                     Dimension of H and S = 52
                     Dimension of H and S = 52
                     Dimension of H and S = 52
                     Dimension of H and S = 52
                     Dimension of H and S = 52
                     Dimension of H and S = 52
                     Dimension of H and S = 52
                     Dimension of H and S = 52
                     Dimension of H and S = 52
                     Dimension of H and S = 52
                     Dimension of H and S = 52
                     Dimension of H and S = 52
                     Dimension of H and S = 52
                     Dimension of H and S = 52
                     Dimension of H and S = 52
                     Dimension of H and S = 52
                     Dimension of H and S = 52
                     Dimension of H and S = 52
                     Dimension of H and S = 52
                     Dimension of H and S = 52
                     Dimension of H and S = 52
                     Dimension of H and S = 52
                     Dimension of H and S = 52
                     Dimension of H and S = 52
                     Dimension of H and S = 52
                     Dimension of H and S = 52
                     Dimension of H and S = 52
                     Dimension of H and S = 52
                     Dimension of H and S = 52
                     Dimension of H and S = 52
                     Dimension of H and S = 52
                     Dimension of H and S = 52
                     Dimension of H and S = 52
                     Dimension of H and S = 52
                     Dimension of H and S = 52
                     Dimension of H and S = 52
                     Dimension of H and S = 52
                     Dimension of H and S = 52
                     Dimension of H and S = 52
                     Dimension of H and S = 52
                     Dimension of H and S = 52
                     Dimension of H and S = 52
                     Dimension of H and S = 52
                     Dimension of H and S = 52
                     Dimension of H and S = 52
                     Dimension of H and S = 52
                     Dimension of H and S = 52
                     Dimension of H and S = 52
                     Dimension of H and S = 52
                     Dimension of H and S = 52
                     Dimension of H and S = 52
                     Dimension of H and S = 52
                     Dimension of H and S = 52
                     Dimension of H and S = 52
                     Dimension of H and S = 52
                     Dimension of H and S = 52
                     Dimension of H and S = 52
                     Dimension of H and S = 52
                     Dimension of H and S = 52
                     Dimension of H and S = 52
                     Dimension of H and S = 52
                     Dimension of H and S = 52
                     Dimension of H and S = 52
                     Dimension of H and S = 52
                     Dimension of H and S = 52
                     Dimension of H and S = 52
                     Dimension of H and S = 52
                     Dimension of H and S = 52
                     Dimension of H and S = 52
                     Dimension of H and S = 52
                     Dimension of H and S = 52
                     Dimension of H and S = 52
                     Dimension of H and S = 52
                     Dimension of H and S = 52
                     Dimension of H and S = 52
                     Dimension of H and S = 52
                     Dimension of H and S = 52
                     Dimension of H and S = 52
                     Dimension of H and S = 52
                     Dimension of H and S = 52
                     Dimension of H and S = 52
                     Dimension of H and S = 52
                     Dimension of H and S = 52
                     Dimension of H and S = 52
                     Dimension of H and S = 52
                     Dimension of H and S = 52
                     Dimension of H and S = 52
                     Dimension of H and S = 52
                     Dimension of H and S = 52
                     Dimension of H and S = 52
                     Dimension of H and S = 52
                     Dimension of H and S = 52
                     Dimension of H and S = 52
                     Dimension of H and S = 52
                     Dimension of H and S = 52
                     Dimension of H and S = 52
                     Dimension of H and S = 52
                     Dimension of H and S = 52
                     Dimension of H and S = 52
                     Dimension of H and S = 52
                     Dimension of H and S = 52
                     Dimension of H and S = 52
                     Dimension of H and S = 52
                     Dimension of H and S = 52
                     Dimension of H and S = 52
                     Dimension of H and S = 52
                     Dimension of H and S = 52
                     Dimension of H and S = 52
                     Dimension of H and S = 52
                     Dimension of H and S = 52
                     Dimension of H and S = 52
                     Dimension of H and S = 52
                     Dimension of H and S = 52
                     Dimension of H and S = 52
                     Dimension of H and S = 52
                     Dimension of H and S = 52
                     Dimension of H and S = 52
                     Dimension of H and S = 52
                     Dimension of H and S = 52
                     Dimension of H and S = 52
                     Dimension of H and S = 52
                     Dimension of H and S = 52
                     Dimension of H and S = 52
                     Dimension of H and S = 52
                     Dimension of H and S = 52
                     Dimension of H and S = 52
                     Dimension of H and S = 52
                     Dimension of H and S = 52
                     Dimension of H and S = 52
                     Dimension of H and S = 52
                     Dimension of H and S = 52
                     Dimension of H and S = 52
                     Dimension of H and S = 52
                     Dimension of H and S = 52
                     Dimension of H and S = 52
                     Dimension of H and S = 52
                     Dimension of H and S = 52
                     Dimension of H and S = 52
                     Dimension of H and S = 52
                     Dimension of H and S = 52
                     Dimension of H and S = 52
                     Dimension of H and S = 52
                     Dimension of H and S = 52
                     Dimension of H and S = 52
                     Dimension of H and S = 52
                     Dimension of H and S = 52
                     Dimension of H and S = 52
                     Dimension of H and S = 52
                     Dimension of H and S = 52
                     Dimension of H and S = 52
                     Dimension of H and S = 52
 end of band structure calculation 
 band eigenvalue in this processor (eV) :
 k-points1(201): 0.202938 0.11683 0
 spin1final_state 1 -15.8954 0
 spin1final_state 2 -15.8954 0
 spin1final_state 3 -14.9001 0
 spin1final_state 4 -14.9001 0
 spin1final_state 5 -8.0781 0
 spin1final_state 6 -8.0781 0
 spin1final_state 7 -3.92955 0
 spin1final_state 8 -3.92955 0
 spin1final_state 9 0.309862 0
 spin1final_state 10 0.309863 0
 spin1final_state 11 6.06548 0
 spin1final_state 12 6.06549 0
 spin1final_state 13 14.5729 0
 spin1final_state 14 14.5729 0
 spin1final_state 15 16.1451 0
 spin1final_state 16 16.1451 0
 spin1final_state 17 18.8427 0
 spin1final_state 18 18.8427 0

 k-points2(201): 0.200908 0.115661 0
 spin1final_state 1 -15.9068 0
 spin1final_state 2 -15.8979 0
 spin1final_state 3 -14.8966 0
 spin1final_state 4 -14.8877 0
 spin1final_state 5 -8.07996 0
 spin1final_state 6 -8.07751 0
 spin1final_state 7 -3.93356 0
 spin1final_state 8 -3.93 0
 spin1final_state 9 0.310967 0
 spin1final_state 10 0.314937 0
 spin1final_state 11 6.06582 0
 spin1final_state 12 6.06843 0
 spin1final_state 13 14.5606 0
 spin1final_state 14 14.5694 0
 spin1final_state 15 16.1473 0
 spin1final_state 16 16.154 0
 spin1final_state 17 18.8383 0
 spin1final_state 18 18.8422 0

 k-points3(201): 0.198879 0.114493 0
 spin1final_state 1 -15.9397 0
 spin1final_state 2 -15.9053 0
 spin1final_state 3 -14.8862 0
 spin1final_state 4 -14.8522 0
 spin1final_state 5 -8.08554 0
 spin1final_state 6 -8.07574 0
 spin1final_state 7 -3.94555 0
 spin1final_state 8 -3.93134 0
 spin1final_state 9 0.314276 0
 spin1final_state 10 0.330097 0
 spin1final_state 11 6.06684 0
 spin1final_state 12 6.07727 0
 spin1final_state 13 14.5244 0
 spin1final_state 14 14.5591 0
 spin1final_state 15 16.1539 0
 spin1final_state 16 16.1799 0
 spin1final_state 17 18.8251 0
 spin1final_state 18 18.8408 0

 k-points4(201): 0.19685 0.113325 0
 spin1final_state 1 -15.9902 0
[...]
 spin1final_state 16 13.8005 0
 spin1final_state 17 15.5323 0
 spin1final_state 18 15.911 0

 k-points174(201): 0.098763 0.170817 0
 spin1final_state 1 -17.0756 0
 spin1final_state 2 -16.6456 0
 spin1final_state 3 -12.3528 0
 spin1final_state 4 -11.965 0
 spin1final_state 5 -10.8196 0
 spin1final_state 6 -10.4478 0
 spin1final_state 7 -4.556 0
 spin1final_state 8 -4.08788 0
 spin1final_state 9 1.17704 0
 spin1final_state 10 1.72311 0
 spin1final_state 11 11.1154 0
 spin1final_state 12 11.5588 0
 spin1final_state 13 11.6153 0
 spin1final_state 14 11.8376 0
 spin1final_state 15 13.0109 0
 spin1final_state 16 13.6419 0
 spin1final_state 17 15.6055 0
 spin1final_state 18 15.8613 0

 k-points175(201): 0.100116 0.173157 0
 spin1final_state 1 -16.9695 0
 spin1final_state 2 -16.7545 0
 spin1final_state 3 -12.2576 0
 spin1final_state 4 -12.0637 0
 spin1final_state 5 -10.7284 0
 spin1final_state 6 -10.5424 0
 spin1final_state 7 -4.43972 0
 spin1final_state 8 -4.20558 0
 spin1final_state 9 1.31157 0
 spin1final_state 10 1.58464 0
 spin1final_state 11 11.2263 0
 spin1final_state 12 11.4481 0
 spin1final_state 13 11.6706 0
 spin1final_state 14 11.7818 0
 spin1final_state 15 13.1674 0
 spin1final_state 16 13.4833 0
 spin1final_state 17 15.676 0
 spin1final_state 18 15.8048 0

 k-points176(201): 0.101469 0.175497 0
 spin1final_state 1 -16.8625 0
 spin1final_state 2 -16.8625 0
 spin1final_state 3 -12.1612 0
 spin1final_state 4 -12.1612 0
 spin1final_state 5 -10.636 0
 spin1final_state 6 -10.636 0
 spin1final_state 7 -4.32289 0
 spin1final_state 8 -4.32289 0
 spin1final_state 9 1.44745 0
 spin1final_state 10 1.44745 0
 spin1final_state 11 11.3372 0
 spin1final_state 12 11.3372 0
 spin1final_state 13 11.7262 0
 spin1final_state 14 11.7262 0
 spin1final_state 15 13.325 0
 spin1final_state 16 13.325 0
 spin1final_state 17 15.7427 0
 spin1final_state 18 15.7427 0

 k-points177(201): 0.102822 0.177837 0
 spin1final_state 1 -16.9695 0
 spin1final_state 2 -16.7545 0
 spin1final_state 3 -12.2576 0
 spin1final_state 4 -12.0637 0
 spin1final_state 5 -10.7284 0
 spin1final_state 6 -10.5424 0
 spin1final_state 7 -4.43972 0
 spin1final_state 8 -4.20558 0
 spin1final_state 9 1.31157 0
 spin1final_state 10 1.58464 0
 spin1final_state 11 11.2263 0
 spin1final_state 12 11.4481 0
 spin1final_state 13 11.6706 0
 spin1final_state 14 11.7818 0
 spin1final_state 15 13.1674 0
 spin1final_state 16 13.4833 0
 spin1final_state 17 15.676 0
 spin1final_state 18 15.8048 0

 k-points178(201): 0.104175 0.180177 0
 spin1final_state 1 -17.0756 0
 spin1final_state 2 -16.6456 0
 spin1final_state 3 -12.3528 0
 spin1final_state 4 -11.965 0
 spin1final_state 5 -10.8196 0
 spin1final_state 6 -10.4478 0
 spin1final_state 7 -4.556 0
 spin1final_state 8 -4.08788 0
 spin1final_state 9 1.17704 0
 spin1final_state 10 1.72311 0
 spin1final_state 11 11.1154 0
 spin1final_state 12 11.5588 0
 spin1final_state 13 11.6153 0
 spin1final_state 14 11.8376 0
 spin1final_state 15 13.0109 0
 spin1final_state 16 13.6419 0
 spin1final_state 17 15.6055 0
 spin1final_state 18 15.8613 0

 k-points179(201): 0.105528 0.182517 0
 spin1final_state 1 -17.1806 0
 spin1final_state 2 -16.5359 0
 spin1final_state 3 -12.4468 0
 spin1final_state 4 -11.8652 0
 spin1final_state 5 -10.9096 0
 spin1final_state 6 -10.3521 0
 spin1final_state 7 -4.67166 0
 spin1final_state 8 -3.96986 0
 spin1final_state 9 1.0439 0
 spin1final_state 10 1.86283 0
 spin1final_state 11 11.0047 0
 spin1final_state 12 11.5601 0
 spin1final_state 13 11.669 0
 spin1final_state 14 11.8935 0
 spin1final_state 15 12.8556 0
 spin1final_state 16 13.8005 0
 spin1final_state 17 15.5323 0
 spin1final_state 18 15.911 0

 k-points180(201): 0.106881 0.184857 0
 spin1final_state 1 -17.2846 0
 spin1final_state 2 -16.4254 0
 spin1final_state 3 -12.5397 0
 spin1final_state 4 -11.7643 0
 spin1final_state 5 -10.9982 0
 spin1final_state 6 -10.2555 0
 spin1final_state 7 -4.78663 0
 spin1final_state 8 -3.85161 0
 spin1final_state 9 0.912167 0
 spin1final_state 10 2.00375 0
 spin1final_state 11 10.8945 0
 spin1final_state 12 11.505 0
 spin1final_state 13 11.7785 0
 spin1final_state 14 11.9495 0
 spin1final_state 15 12.7017 0
 spin1final_state 16 13.9587 0
 spin1final_state 17 15.4571 0
 spin1final_state 18 15.9531 0

 k-points181(201): 0.108233 0.187197 0
 spin1final_state 1 -17.3874 0
 spin1final_state 2 -16.3142 0
 spin1final_state 3 -12.6314 0
 spin1final_state 4 -11.6623 0
 spin1final_state 5 -11.0855 0
 spin1final_state 6 -10.1579 0
 spin1final_state 7 -4.90085 0
 spin1final_state 8 -3.73322 0
 spin1final_state 9 0.781885 0
 spin1final_state 10 2.14583 0
 spin1final_state 11 10.7847 0
 spin1final_state 12 11.4501 0
 spin1final_state 13 11.8871 0
 spin1final_state 14 12.0056 0
 spin1final_state 15 12.5495 0
 spin1final_state 16 14.1158 0
 spin1final_state 17 15.3808 0
 spin1final_state 18 15.9864 0

 k-points182(201): 0.109586 0.189537 0
 spin1final_state 1 -17.4892 0
 spin1final_state 2 -16.2023 0
 spin1final_state 3 -12.7218 0
 spin1final_state 4 -11.5592 0
 spin1final_state 5 -11.1712 0
 spin1final_state 6 -10.0595 0
 spin1final_state 7 -5.01426 0
 spin1final_state 8 -3.61478 0
 spin1final_state 9 0.653076 0
 spin1final_state 10 2.28903 0
 spin1final_state 11 10.6755 0
 spin1final_state 12 11.3953 0
 spin1final_state 13 11.9946 0
 spin1final_state 14 12.0618 0
 spin1final_state 15 12.399 0
 spin1final_state 16 14.2713 0
 spin1final_state 17 15.3041 0
 spin1final_state 18 16.0103 0

 k-points183(201): 0.110939 0.191877 0
 spin1final_state 1 -17.5898 0
 spin1final_state 2 -16.09 0
 spin1final_state 3 -12.8111 0
 spin1final_state 4 -11.455 0
 spin1final_state 5 -11.2554 0
 spin1final_state 6 -9.9603 0
 spin1final_state 7 -5.12681 0
 spin1final_state 8 -3.49639 0
 spin1final_state 9 0.525769 0
 spin1final_state 10 2.4333 0
 spin1final_state 11 10.567 0
 spin1final_state 12 11.3408 0
 spin1final_state 13 12.1005 0
 spin1final_state 14 12.118 0
 spin1final_state 15 12.2505 0
 spin1final_state 16 14.4245 0
 spin1final_state 17 15.2277 0
 spin1final_state 18 16.0239 0

 k-points184(201): 0.112292 0.194217 0
 spin1final_state 1 -17.6892 0
 spin1final_state 2 -15.9772 0
 spin1final_state 3 -12.8992 0
 spin1final_state 4 -11.3498 0
 spin1final_state 5 -11.3378 0
 spin1final_state 6 -9.8603 0
 spin1final_state 7 -5.23843 0
 spin1final_state 8 -3.37816 0
 spin1final_state 9 0.399989 0
 spin1final_state 10 2.5786 0
 spin1final_state 11 10.4593 0
 spin1final_state 12 11.2863 0
 spin1final_state 13 12.104 0
 spin1final_state 14 12.1742 0
 spin1final_state 15 12.2048 0
 spin1final_state 16 14.5746 0
 spin1final_state 17 15.152 0
 spin1final_state 18 16.0268 0

 k-points185(201): 0.113645 0.196557 0
 spin1final_state 1 -17.7874 0
 spin1final_state 2 -15.864 0
 spin1final_state 3 -12.9861 0
 spin1final_state 4 -11.4185 0
 spin1final_state 5 -11.2435 0
 spin1final_state 6 -9.75959 0
 spin1final_state 7 -5.34907 0
 spin1final_state 8 -3.26018 0
 spin1final_state 9 0.275761 0
 spin1final_state 10 2.72487 0
 spin1final_state 11 10.3525 0
 spin1final_state 12 11.232 0
 spin1final_state 13 11.9597 0
 spin1final_state 14 12.2304 0
 spin1final_state 15 12.3068 0
 spin1final_state 16 14.7206 0
 spin1final_state 17 15.0778 0
 spin1final_state 18 16.0187 0

 k-points186(201): 0.114998 0.198896 0
 spin1final_state 1 -17.8844 0
 spin1final_state 2 -15.7507 0
 spin1final_state 3 -13.0717 0
 spin1final_state 4 -11.4972 0
 spin1final_state 5 -11.1361 0
 spin1final_state 6 -9.65821 0
 spin1final_state 7 -5.45869 0
 spin1final_state 8 -3.14256 0
 spin1final_state 9 0.153109 0
 spin1final_state 10 2.87208 0
 spin1final_state 11 10.2466 0
 spin1final_state 12 11.1779 0
 spin1final_state 13 11.8175 0
 spin1final_state 14 12.2866 0
 spin1final_state 15 12.4062 0
 spin1final_state 16 14.8615 0
 spin1final_state 17 15.0054 0
 spin1final_state 18 15.9996 0

 k-points187(201): 0.116351 0.201236 0
 spin1final_state 1 -17.9802 0
 spin1final_state 2 -15.6373 0
 spin1final_state 3 -13.1561 0
 spin1final_state 4 -11.5739 0
 spin1final_state 5 -11.0278 0
 spin1final_state 6 -9.5562 0
 spin1final_state 7 -5.56725 0
 spin1final_state 8 -3.02543 0
 spin1final_state 9 0.0320549 0
 spin1final_state 10 3.02016 0
 spin1final_state 11 10.1418 0
 spin1final_state 12 11.1238 0
 spin1final_state 13 11.6777 0
 spin1final_state 14 12.3428 0
 spin1final_state 15 12.5025 0
 spin1final_state 16 14.9354 0
 spin1final_state 17 14.9962 0
 spin1final_state 18 15.9697 0

 k-points188(201): 0.117704 0.203576 0
 spin1final_state 1 -18.0746 0
 spin1final_state 2 -15.524 0
 spin1final_state 3 -13.2393 0
 spin1final_state 4 -11.6483 0
 spin1final_state 5 -10.9185 0
 spin1final_state 6 -9.45362 0
 spin1final_state 7 -5.67469 0
 spin1final_state 8 -2.90889 0
 spin1final_state 9 -0.0873802 0
 spin1final_state 10 3.16905 0
 spin1final_state 11 10.0381 0
 spin1final_state 12 11.0699 0
 spin1final_state 13 11.5401 0
 spin1final_state 14 12.3989 0
 spin1final_state 15 12.5952 0
 spin1final_state 16 14.8682 0
 spin1final_state 17 15.1235 0
 spin1final_state 18 15.9294 0

 k-points189(201): 0.119057 0.205916 0
 spin1final_state 1 -18.1678 0
 spin1final_state 2 -15.4111 0
 spin1final_state 3 -13.3212 0
 spin1final_state 4 -11.7203 0
 spin1final_state 5 -10.8082 0
 spin1final_state 6 -9.35051 0
 spin1final_state 7 -5.78098 0
 spin1final_state 8 -2.79307 0
 spin1final_state 9 -0.205176 0
 spin1final_state 10 3.31872 0
 spin1final_state 11 9.93555 0
 spin1final_state 12 11.0161 0
 spin1final_state 13 11.405 0
 spin1final_state 14 12.4548 0
 spin1final_state 15 12.6836 0
 spin1final_state 16 14.8041 0
 spin1final_state 17 15.242 0
 spin1final_state 18 15.8796 0

 k-points190(201): 0.12041 0.208256 0
 spin1final_state 1 -18.2598 0
 spin1final_state 2 -15.2988 0
 spin1final_state 3 -13.4019 0
 spin1final_state 4 -11.7895 0
 spin1final_state 5 -10.6969 0
 spin1final_state 6 -9.24693 0
 spin1final_state 7 -5.88607 0
 spin1final_state 8 -2.67809 0
 spin1final_state 9 -0.321314 0
 spin1final_state 10 3.46909 0
 spin1final_state 11 9.83424 0
 spin1final_state 12 10.9623 0
 spin1final_state 13 11.2722 0
 spin1final_state 14 12.5107 0
 spin1final_state 15 12.7672 0
 spin1final_state 16 14.7436 0
 spin1final_state 17 15.3504 0
 spin1final_state 18 15.821 0

 k-points191(201): 0.121763 0.210596 0
 spin1final_state 1 -18.3504 0
 spin1final_state 2 -15.1873 0
 spin1final_state 3 -13.4813 0
 spin1final_state 4 -11.8558 0
 spin1final_state 5 -10.5847 0
 spin1final_state 6 -9.14293 0
 spin1final_state 7 -5.98993 0
 spin1final_state 8 -2.56408 0
 spin1final_state 9 -0.435776 0
 spin1final_state 10 3.6201 0
 spin1final_state 11 9.73421 0
 spin1final_state 12 10.9085 0
 spin1final_state 13 11.142 0
 spin1final_state 14 12.5663 0
 spin1final_state 15 12.8449 0
 spin1final_state 16 14.6869 0
 spin1final_state 17 15.4476 0
 spin1final_state 18 15.7545 0

 k-points192(201): 0.123116 0.212936 0
 spin1final_state 1 -18.4396 0
 spin1final_state 2 -15.077 0
 spin1final_state 3 -13.5595 0
 spin1final_state 4 -11.9189 0
 spin1final_state 5 -10.4716 0
 spin1final_state 6 -9.03856 0
 spin1final_state 7 -6.09253 0
 spin1final_state 8 -2.45115 0
 spin1final_state 9 -0.548545 0
 spin1final_state 10 3.77169 0
 spin1final_state 11 9.63551 0
 spin1final_state 12 10.8548 0
 spin1final_state 13 11.0141 0
 spin1final_state 14 12.6218 0
 spin1final_state 15 12.916 0
 spin1final_state 16 14.6344 0
 spin1final_state 17 15.5325 0
 spin1final_state 18 15.6811 0

 k-points193(201): 0.124468 0.215276 0
 spin1final_state 1 -18.5276 0
 spin1final_state 2 -14.9684 0
 spin1final_state 3 -13.6364 0
 spin1final_state 4 -11.9782 0
 spin1final_state 5 -10.3576 0
 spin1final_state 6 -8.93386 0
 spin1final_state 7 -6.19383 0
 spin1final_state 8 -2.33945 0
 spin1final_state 9 -0.659604 0
 spin1final_state 10 3.9238 0
 spin1final_state 11 9.5382 0
 spin1final_state 12 10.801 0
 spin1final_state 13 10.8888 0
 spin1final_state 14 12.6771 0
 spin1final_state 15 12.9794 0
 spin1final_state 16 14.5864 0
 spin1final_state 17 15.6019 0
 spin1final_state 18 15.6043 0

 k-points194(201): 0.125821 0.217616 0
 spin1final_state 1 -18.6141 0
 spin1final_state 2 -14.8618 0
 spin1final_state 3 -13.7121 0
 spin1final_state 4 -12.0334 0
 spin1final_state 5 -10.2427 0
 spin1final_state 6 -8.82891 0
 spin1final_state 7 -6.29379 0
 spin1final_state 8 -2.22909 0
 spin1final_state 9 -0.76894 0
 spin1final_state 10 4.07636 0
 spin1final_state 11 9.4423 0
 spin1final_state 12 10.747 0
 spin1final_state 13 10.7661 0
 spin1final_state 14 12.732 0
 spin1final_state 15 13.0339 0
 spin1final_state 16 14.5432 0
 spin1final_state 17 15.5178 0
 spin1final_state 18 15.6628 0

 k-points195(201): 0.127174 0.219956 0
 spin1final_state 1 -18.6994 0
 spin1final_state 2 -14.7579 0
 spin1final_state 3 -13.7865 0
 spin1final_state 4 -12.0839 0
 spin1final_state 5 -10.127 0
 spin1final_state 6 -8.72374 0
 spin1final_state 7 -6.39239 0
 spin1final_state 8 -2.12022 0
 spin1final_state 9 -0.876536 0
 spin1final_state 10 4.2293 0
 spin1final_state 11 9.34787 0
 spin1final_state 12 10.6456 0
 spin1final_state 13 10.6932 0
 spin1final_state 14 12.7867 0
 spin1final_state 15 13.0782 0
 spin1final_state 16 14.505 0
 spin1final_state 17 15.4297 0
 spin1final_state 18 15.7082 0

 k-points196(201): 0.128527 0.222296 0
 spin1final_state 1 -18.7832 0
 spin1final_state 2 -14.6572 0
 spin1final_state 3 -13.8596 0
 spin1final_state 4 -12.1291 0
 spin1final_state 5 -10.0105 0
 spin1final_state 6 -8.61841 0
 spin1final_state 7 -6.48961 0
 spin1final_state 8 -2.01296 0
 spin1final_state 9 -0.98238 0
 spin1final_state 10 4.38254 0
 spin1final_state 11 9.25495 0
 spin1final_state 12 10.5279 0
 spin1final_state 13 10.6391 0
 spin1final_state 14 12.8411 0
 spin1final_state 15 13.1109 0
 spin1final_state 16 14.4721 0
 spin1final_state 17 15.3384 0
 spin1final_state 18 15.7414 0

 k-points197(201): 0.12988 0.224636 0
 spin1final_state 1 -18.8657 0
 spin1final_state 2 -14.5607 0
 spin1final_state 3 -13.9315 0
 spin1final_state 4 -12.1682 0
 spin1final_state 5 -9.8932 0
 spin1final_state 6 -8.51299 0
 spin1final_state 7 -6.5854 0
 spin1final_state 8 -1.90744 0
 spin1final_state 9 -1.08646 0
 spin1final_state 10 4.53601 0
 spin1final_state 11 9.16356 0
 spin1final_state 12 10.4126 0
 spin1final_state 13 10.5848 0
 spin1final_state 14 12.8952 0
 spin1final_state 15 13.1306 0
 spin1final_state 16 14.4447 0
 spin1final_state 17 15.2447 0
 spin1final_state 18 15.7638 0

 k-points198(201): 0.131233 0.226976 0
 spin1final_state 1 -18.9467 0
 spin1final_state 2 -14.4692 0
 spin1final_state 3 -14.002 0
 spin1final_state 4 -12.2003 0
 spin1final_state 5 -9.77517 0
 spin1final_state 6 -8.40753 0
 spin1final_state 7 -6.67976 0
 spin1final_state 8 -1.80379 0
 spin1final_state 9 -1.18876 0
 spin1final_state 10 4.68963 0
 spin1final_state 11 9.07376 0
 spin1final_state 12 10.2999 0
 spin1final_state 13 10.5302 0
 spin1final_state 14 12.9488 0
 spin1final_state 15 13.1358 0
 spin1final_state 16 14.423 0
 spin1final_state 17 15.1492 0
 spin1final_state 18 15.7774 0

 k-points199(201): 0.132586 0.229316 0
 spin1final_state 1 -19.0264 0
 spin1final_state 2 -14.3836 0
 spin1final_state 3 -14.0713 0
 spin1final_state 4 -12.2245 0
 spin1final_state 5 -9.65643 0
 spin1final_state 6 -8.30208 0
 spin1final_state 7 -6.77264 0
 spin1final_state 8 -1.70213 0
 spin1final_state 9 -1.28927 0
 spin1final_state 10 4.84333 0
 spin1final_state 11 8.98556 0
 spin1final_state 12 10.1896 0
 spin1final_state 13 10.4753 0
 spin1final_state 14 13.0021 0
 spin1final_state 15 13.125 0
 spin1final_state 16 14.4073 0
 spin1final_state 17 15.0527 0
 spin1final_state 18 15.7845 0

 k-points200(201): 0.133939 0.231656 0
 spin1final_state 1 -19.1046 0
 spin1final_state 2 -14.305 0
 spin1final_state 3 -14.1394 0
 spin1final_state 4 -12.2398 0
 spin1final_state 5 -9.53702 0
 spin1final_state 6 -8.19673 0
 spin1final_state 7 -6.86404 0
 spin1final_state 8 -1.60259 0
 spin1final_state 9 -1.38799 0
 spin1final_state 10 4.99701 0
 spin1final_state 11 8.89899 0
 spin1final_state 12 10.0819 0
 spin1final_state 13 10.42 0
 spin1final_state 14 13.0548 0
 spin1final_state 15 13.0973 0
 spin1final_state 16 14.3977 0
 spin1final_state 17 14.9555 0
 spin1final_state 18 15.7876 0

 k-points201(201): 0.135292 0.233996 0
 spin1final_state 1 -19.1814 0
 spin1final_state 2 -14.2345 0
 spin1final_state 3 -14.2061 0
 spin1final_state 4 -12.2452 0
 spin1final_state 5 -9.41697 0
 spin1final_state 6 -8.09151 0
 spin1final_state 7 -6.95392 0
 spin1final_state 8 -1.50527 0
 spin1final_state 9 -1.48489 0
 spin1final_state 10 5.1506 0
 spin1final_state 11 8.8141 0
 spin1final_state 12 9.97669 0
 spin1final_state 13 10.3642 0
 spin1final_state 14 13.0516 0
 spin1final_state 15 13.1072 0
 spin1final_state 16 14.3945 0
 spin1final_state 17 14.8581 0
 spin1final_state 18 15.789 0





 >>>>>>>>>>>>>>>>>>>>>>>>>>>>>>>>>>>>>>>>>>>>>>>>>>>>>>>>>>>>>>>>>>>>>>
 |                                                                    |
 | Post-processing of data:                                           |
 | DOS (density of states) and bands will be output here.             |
 | If atomic orbitals are used, Mulliken charge analysis can be done. |
 | Also the .bxsf file containing fermi surface information can be    |
 | done here.                                                         |
 |                                                                    |
 <<<<<<<<<<<<<<<<<<<<<<<<<<<<<<<<<<<<<<<<<<<<<<<<<<<<<<<<<<<<<<<<<<<<<<





 Output bands in file: OUT.ABACUS/BANDS_1.dat




  |CLASS_NAME---------|NAME---------------|TIME(Sec)-----|CALLS----|AVG------|PER%-------
                                      total         3.0421        11      0.28     1e+02%
               Run_lcao           lcao_line         3.0397         1         3     1e+02%
            ORB_control      set_orb_tables         1.0956         1       1.1        36%
         ORB_gen_tables          gen_tables         1.0956         1       1.1        36%
          ORB_table_phi          init_Table        0.71903         1      0.72        24%
          ORB_table_phi      cal_ST_Phi12_R        0.71606        70      0.01        24%
         ORB_table_beta     init_Table_Beta        0.15441         1      0.15       5.1%
         ORB_table_beta       VNL_PhiBeta_R        0.15359        26    0.0059         5%
              LOOP_ions            opt_ions          1.748         1       1.7        57%
              LOOP_elec     solve_elec_stru         1.7453         1       1.7        57%
              LOOP_elec              solver         1.7303         1       1.7        57%
          ELEC_cbands_k           cal_bands         1.7248         1       1.7        57%
             Efficience              each_k         1.7153       201    0.0085        56%
             Efficience                 H_k        0.24236       201    0.0012         8%
            LCAO_Hamilt        calculate_Hk        0.24208       201    0.0012         8%
                 Gint_k        folding_vl_k        0.21739       201    0.0011       7.1%
                 Gint_k              Distri        0.21718       201    0.0011       7.1%
             Efficience             diago_k         1.4728       201    0.0073        48%
              HS_Matrix         save_HS_bit         0.5988       201     0.003        20%
      Diago_LCAO_Matrix          elpa_solve        0.64574       201    0.0032        21%
      Local_Orbital_wfc      wfc_2d_to_grid        0.22151       201    0.0011       7.3%
               WF_Local  write_lowf_complex        0.19936       201   0.00099       6.6%
 ----------------------------------------------------------------------------------------

 CLASS_NAME---------|NAME---------------|MEMORY(MB)--------
                                         252.1
        ORB_table_phi               Jl(x)          107.2
 ----------------------------------------------------------

 Start  Time  : Mon Apr 11 22:19:37 2022
 Finish Time  : Mon Apr 11 22:19:40 2022
 Total  Time  : 0 h 0 mins 3 secs 
