                                                                                     
                             WELCOME TO ABACUS                                       
                                                                                     
               'Atomic-orbital Based Ab-initio Computation at UStc'                  
                                                                                     
                     Website: http://abacus.ustc.edu.cn/                             
                                                                                     
    Version: Parallel, in development
    Processor Number is 8
    Start Time is Mon Apr 11 22:19:05 2022
                                                                                     
 ------------------------------------------------------------------------------------

 READING GENERAL INFORMATION
                           global_out_dir = OUT.ABACUS/
                           global_in_card = INPUT
                               pseudo_dir = 
                              orbital_dir = 
                              pseudo_type = auto
                                    DRANK = 1
                                    DSIZE = 8
                                   DCOLOR = 1
                                    GRANK = 1
                                    GSIZE = 1




 >>>>>>>>>>>>>>>>>>>>>>>>>>>>>>>>>>>>>>>>>>>>>>>>>>>>>>>>>>>>>>>>>>>>>>
 |                                                                    |
 | Reading atom information in unitcell:                              |
 | From the input file and the structure file we know the number of   |
 | different elments in this unitcell, then we list the detail        |
 | information for each element, especially the zeta and polar atomic |
 | orbital number for each element. The total atom number is counted. |
 | We calculate the nearest atom distance for each atom and show the  |
 | Cartesian and Direct coordinates for each atom. We list the file   |
 | address for atomic orbitals. The volume and the lattice vectors    |
 | in real and reciprocal space is also shown.                        |
 |                                                                    |
 <<<<<<<<<<<<<<<<<<<<<<<<<<<<<<<<<<<<<<<<<<<<<<<<<<<<<<<<<<<<<<<<<<<<<<




 READING UNITCELL INFORMATION
                                    ntype = 1
                 atom label for species 1 = C
                  lattice constant (Bohr) = 1.88973
              lattice constant (Angstrom) = 1

 READING ATOM TYPE 1
                               atom label = C
                      L=0, number of zeta = 2
                      L=1, number of zeta = 2
                      L=2, number of zeta = 1
             number of atom for this type = 4
                      start magnetization = FALSE
                      start magnetization = FALSE
                      start magnetization = FALSE
                      start magnetization = FALSE

                        TOTAL ATOM NUMBER = 4

 DIRECT COORDINATES
         atom                   x                   y                   z                 mag                  vx                  vy                  vz
      taud_C1                   0                   0                 0.5                   0                   0                   0                   0
      taud_C2                 0.5                 0.5                 0.5                   0                   0                   0                   0
      taud_C3            0.166667                 0.5                 0.5                   0                   0                   0                   0
      taud_C4            0.666667                   1                 0.5                   0                   0                   0                   0


 READING ORBITAL FILE NAMES FOR LCAO
 orbital file: C_gga_6au_60Ry_2s2p1d.orb

                          Volume (Bohr^3) = 1100.38
                             Volume (A^3) = 163.06

 Lattice vectors: (Cartesian coordinate: in unit of a_0)
             +3.69306            -2.13525                  +0
             +1.23456            +2.13525                  +0
                   +0                  +0            +15.4974
 Reciprocal vectors: (Cartesian coordinate: in unit of 2 pi/a_0)
            +0.202938           -0.117335                  +0
            +0.202938           +0.350994                  -0
                   -0                  -0          +0.0645268




 >>>>>>>>>>>>>>>>>>>>>>>>>>>>>>>>>>>>>>>>>>>>>>>>>>>>>>>>>>>>>>>>>>>>>>
 |                                                                    |
 | Reading pseudopotentials files:                                    |
 | The pseudopotential file is in UPF format. The 'NC' indicates that |
 | the type of pseudopotential is 'norm conserving'. Functional of    |
 | exchange and correlation is decided by 4 given parameters in UPF   |
 | file.  We also read in the 'core correction' if there exists.      |
 | Also we can read the valence electrons number and the maximal      |
 | angular momentum used in this pseudopotential. We also read in the |
 | trail wave function, trail atomic density and local-pseudopotential|
 | on logrithmic grid. The non-local pseudopotential projector is also|
 | read in if there is any.                                           |
 |                                                                    |
 <<<<<<<<<<<<<<<<<<<<<<<<<<<<<<<<<<<<<<<<<<<<<<<<<<<<<<<<<<<<<<<<<<<<<<




                PAO radial cut off (Bohr) = 15

 Read in pseudopotential file is ./C_ONCV_PBE-1.2.upf
                     pseudopotential type = NC
          exchange-correlation functional = PBE
                 nonlocal core correction = 0
                        valence electrons = 4
                                     lmax = 1
                           number of zeta = 0
                     number of projectors = 4
                           L of projector = 0
                           L of projector = 0
                           L of projector = 1
                           L of projector = 1
     initial pseudo atomic orbital number = 0
                                   NLOCAL = 52

 SETUP THE ELECTRONS NUMBER
             electron number of element C = 4
       total electron number of element C = 16
                           occupied bands = 8
                                   NLOCAL = 52
                                   NBANDS = 18
                                   NBANDS = 18
 DONE : SETUP UNITCELL Time : 0.00501269 (SEC)





 >>>>>>>>>>>>>>>>>>>>>>>>>>>>>>>>>>>>>>>>>>>>>>>>>>>>>>>>>>>>>>>>>>>>>>
 |                                                                    |
 | Setup K-points                                                     |
 | We setup the k-points according to input parameters.               |
 | The reduced k-points are set according to symmetry operations.     |
 | We treat the spin as another set of k-points.                      |
 |                                                                    |
 <<<<<<<<<<<<<<<<<<<<<<<<<<<<<<<<<<<<<<<<<<<<<<<<<<<<<<<<<<<<<<<<<<<<<<





 SETUP K-POINTS
                                    nspin = 1
                   Input type of k points = Monkhorst-Pack(Gamma)
                                   nkstot = 100

  KPOINTS            DIRECT_X            DIRECT_Y            DIRECT_Z              WEIGHT
        1                   0                   0                   0                0.01
        2                 0.1                   0                   0                0.01
        3                 0.2                   0                   0                0.01
        4                 0.3                   0                   0                0.01
        5                 0.4                   0                   0                0.01
        6                 0.5                   0                   0                0.01
        7                 0.6                   0                   0                0.01
        8                 0.7                   0                   0                0.01
        9                 0.8                   0                   0                0.01
       10                 0.9                   0                   0                0.01
       11                   0                 0.1                   0                0.01
       12                 0.1                 0.1                   0                0.01
       13                 0.2                 0.1                   0                0.01
       14                 0.3                 0.1                   0                0.01
       15                 0.4                 0.1                   0                0.01
       16                 0.5                 0.1                   0                0.01
       17                 0.6                 0.1                   0                0.01
       18                 0.7                 0.1                   0                0.01
       19                 0.8                 0.1                   0                0.01
       20                 0.9                 0.1                   0                0.01
       21                   0                 0.2                   0                0.01
       22                 0.1                 0.2                   0                0.01
       23                 0.2                 0.2                   0                0.01
       24                 0.3                 0.2                   0                0.01
       25                 0.4                 0.2                   0                0.01
       26                 0.5                 0.2                   0                0.01
       27                 0.6                 0.2                   0                0.01
       28                 0.7                 0.2                   0                0.01
       29                 0.8                 0.2                   0                0.01
       30                 0.9                 0.2                   0                0.01
       31                   0                 0.3                   0                0.01
       32                 0.1                 0.3                   0                0.01
       33                 0.2                 0.3                   0                0.01
       34                 0.3                 0.3                   0                0.01
       35                 0.4                 0.3                   0                0.01
       36                 0.5                 0.3                   0                0.01
       37                 0.6                 0.3                   0                0.01
       38                 0.7                 0.3                   0                0.01
       39                 0.8                 0.3                   0                0.01
       40                 0.9                 0.3                   0                0.01
       41                   0                 0.4                   0                0.01
       42                 0.1                 0.4                   0                0.01
       43                 0.2                 0.4                   0                0.01
       44                 0.3                 0.4                   0                0.01
       45                 0.4                 0.4                   0                0.01
       46                 0.5                 0.4                   0                0.01
       47                 0.6                 0.4                   0                0.01
       48                 0.7                 0.4                   0                0.01
       49                 0.8                 0.4                   0                0.01
       50                 0.9                 0.4                   0                0.01
       51                   0                 0.5                   0                0.01
       52                 0.1                 0.5                   0                0.01
       53                 0.2                 0.5                   0                0.01
       54                 0.3                 0.5                   0                0.01
       55                 0.4                 0.5                   0                0.01
       56                 0.5                 0.5                   0                0.01
       57                 0.6                 0.5                   0                0.01
       58                 0.7                 0.5                   0                0.01
       59                 0.8                 0.5                   0                0.01
       60                 0.9                 0.5                   0                0.01
       61                   0                 0.6                   0                0.01
       62                 0.1                 0.6                   0                0.01
       63                 0.2                 0.6                   0                0.01
       64                 0.3                 0.6                   0                0.01
       65                 0.4                 0.6                   0                0.01
       66                 0.5                 0.6                   0                0.01
       67                 0.6                 0.6                   0                0.01
       68                 0.7                 0.6                   0                0.01
       69                 0.8                 0.6                   0                0.01
       70                 0.9                 0.6                   0                0.01
       71                   0                 0.7                   0                0.01
       72                 0.1                 0.7                   0                0.01
       73                 0.2                 0.7                   0                0.01
       74                 0.3                 0.7                   0                0.01
       75                 0.4                 0.7                   0                0.01
       76                 0.5                 0.7                   0                0.01
       77                 0.6                 0.7                   0                0.01
       78                 0.7                 0.7                   0                0.01
       79                 0.8                 0.7                   0                0.01
       80                 0.9                 0.7                   0                0.01
       81                   0                 0.8                   0                0.01
       82                 0.1                 0.8                   0                0.01
       83                 0.2                 0.8                   0                0.01
       84                 0.3                 0.8                   0                0.01
       85                 0.4                 0.8                   0                0.01
       86                 0.5                 0.8                   0                0.01
       87                 0.6                 0.8                   0                0.01
       88                 0.7                 0.8                   0                0.01
       89                 0.8                 0.8                   0                0.01
       90                 0.9                 0.8                   0                0.01
       91                   0                 0.9                   0                0.01
       92                 0.1                 0.9                   0                0.01
       93                 0.2                 0.9                   0                0.01
       94                 0.3                 0.9                   0                0.01
       95                 0.4                 0.9                   0                0.01
       96                 0.5                 0.9                   0                0.01
       97                 0.6                 0.9                   0                0.01
       98                 0.7                 0.9                   0                0.01
       99                 0.8                 0.9                   0                0.01
      100                 0.9                 0.9                   0                0.01

           k-point number in this process = 100
       minimum distributed K point number = 100

  KPOINTS         CARTESIAN_X         CARTESIAN_Y         CARTESIAN_Z              WEIGHT
        1                   0                   0                   0                0.02
        2           0.0202938          -0.0117335                   0                0.02
        3           0.0405875          -0.0234669                   0                0.02
        4           0.0608813          -0.0352004                   0                0.02
        5           0.0811751          -0.0469338                   0                0.02
        6            0.101469          -0.0586673                   0                0.02
        7            0.121763          -0.0704007                   0                0.02
        8            0.142056          -0.0821342                   0                0.02
        9             0.16235          -0.0938677                   0                0.02
       10            0.182644           -0.105601                   0                0.02
       11           0.0202938           0.0350994                   0                0.02
       12           0.0405875           0.0233659                   0                0.02
       13           0.0608813           0.0116325                   0                0.02
       14           0.0811751        -0.000100989                   0                0.02
       15            0.101469          -0.0118344                   0                0.02
       16            0.121763          -0.0235679                   0                0.02
       17            0.142056          -0.0353014                   0                0.02
       18             0.16235          -0.0470348                   0                0.02
       19            0.182644          -0.0587683                   0                0.02
       20            0.202938          -0.0705017                   0                0.02
       21           0.0405875           0.0701988                   0                0.02
       22           0.0608813           0.0584653                   0                0.02
       23           0.0811751           0.0467318                   0                0.02
       24            0.101469           0.0349984                   0                0.02
       25            0.121763           0.0232649                   0                0.02
       26            0.142056           0.0115315                   0                0.02
       27             0.16235        -0.000201977                   0                0.02
       28            0.182644          -0.0119354                   0                0.02
       29            0.202938          -0.0236689                   0                0.02
       30            0.223231          -0.0354023                   0                0.02
       31           0.0608813            0.105298                   0                0.02
       32           0.0811751           0.0935647                   0                0.02
       33            0.101469           0.0818312                   0                0.02
       34            0.121763           0.0700978                   0                0.02
       35            0.142056           0.0583643                   0                0.02
       36             0.16235           0.0466309                   0                0.02
       37            0.182644           0.0348974                   0                0.02
       38            0.202938           0.0231639                   0                0.02
       39            0.223231           0.0114305                   0                0.02
       40            0.243525        -0.000302966                   0                0.02
       41           0.0811751            0.140398                   0                0.02
       42            0.101469            0.128664                   0                0.02
       43            0.121763            0.116931                   0                0.02
       44            0.142056            0.105197                   0                0.02
       45             0.16235           0.0934637                   0                0.02
       46            0.182644           0.0817302                   0                0.02
       47            0.202938           0.0699968                   0                0.02
       48            0.223231           0.0582633                   0                0.02
       49            0.243525           0.0465299                   0                0.02
       50            0.263819           0.0347964                   0                0.02
       51            0.101469            0.175497                   0                0.02
       52            0.121763            0.163763                   0                0.02
       53            0.142056             0.15203                   0                0.02
       54             0.16235            0.140297                   0                0.02
       55            0.182644            0.128563                   0                0.02
       56            0.202938             0.11683                   0                0.02
       57            0.223231            0.105096                   0                0.02
       58            0.243525           0.0933627                   0                0.02
       59            0.263819           0.0816293                   0                0.02
       60            0.284113           0.0698958                   0                0.02
       61            0.121763            0.210596                   0                0.02
       62            0.142056            0.198863                   0                0.02
       63             0.16235            0.187129                   0                0.02
       64            0.182644            0.175396                   0                0.02
       65            0.202938            0.163662                   0                0.02
       66            0.223231            0.151929                   0                0.02
       67            0.243525            0.140196                   0                0.02
       68            0.263819            0.128462                   0                0.02
       69            0.284113            0.116729                   0                0.02
       70            0.304407            0.104995                   0                0.02
       71            0.142056            0.245696                   0                0.02
       72             0.16235            0.233962                   0                0.02
       73            0.182644            0.222229                   0                0.02
       74            0.202938            0.210495                   0                0.02
       75            0.223231            0.198762                   0                0.02
       76            0.243525            0.187028                   0                0.02
       77            0.263819            0.175295                   0                0.02
       78            0.284113            0.163561                   0                0.02
       79            0.304407            0.151828                   0                0.02
       80              0.3247            0.140095                   0                0.02
       81             0.16235            0.280795                   0                0.02
       82            0.182644            0.269062                   0                0.02
       83            0.202938            0.257328                   0                0.02
       84            0.223231            0.245595                   0                0.02
       85            0.243525            0.233861                   0                0.02
       86            0.263819            0.222128                   0                0.02
       87            0.284113            0.210394                   0                0.02
       88            0.304407            0.198661                   0                0.02
       89              0.3247            0.186927                   0                0.02
       90            0.344994            0.175194                   0                0.02
       91            0.182644            0.315894                   0                0.02
       92            0.202938            0.304161                   0                0.02
       93            0.223231            0.292428                   0                0.02
       94            0.243525            0.280694                   0                0.02
       95            0.263819            0.268961                   0                0.02
       96            0.284113            0.257227                   0                0.02
       97            0.304407            0.245494                   0                0.02
       98              0.3247             0.23376                   0                0.02
       99            0.344994            0.222027                   0                0.02
      100            0.365288            0.210293                   0                0.02

  KPOINTS            DIRECT_X            DIRECT_Y            DIRECT_Z              WEIGHT
        1                   0                   0                   0                0.02
        2                 0.1                   0                   0                0.02
        3                 0.2                   0                   0                0.02
        4                 0.3                   0                   0                0.02
        5                 0.4                   0                   0                0.02
        6                 0.5                   0                   0                0.02
        7                 0.6                   0                   0                0.02
        8                 0.7                   0                   0                0.02
        9                 0.8                   0                   0                0.02
       10                 0.9                   0                   0                0.02
       11                   0                 0.1                   0                0.02
       12                 0.1                 0.1                   0                0.02
       13                 0.2                 0.1                   0                0.02
       14                 0.3                 0.1                   0                0.02
       15                 0.4                 0.1                   0                0.02
       16                 0.5                 0.1                   0                0.02
       17                 0.6                 0.1                   0                0.02
       18                 0.7                 0.1                   0                0.02
       19                 0.8                 0.1                   0                0.02
       20                 0.9                 0.1                   0                0.02
       21                   0                 0.2                   0                0.02
       22                 0.1                 0.2                   0                0.02
       23                 0.2                 0.2                   0                0.02
       24                 0.3                 0.2                   0                0.02
       25                 0.4                 0.2                   0                0.02
       26                 0.5                 0.2                   0                0.02
       27                 0.6                 0.2                   0                0.02
       28                 0.7                 0.2                   0                0.02
       29                 0.8                 0.2                   0                0.02
       30                 0.9                 0.2                   0                0.02
       31                   0                 0.3                   0                0.02
       32                 0.1                 0.3                   0                0.02
       33                 0.2                 0.3                   0                0.02
       34                 0.3                 0.3                   0                0.02
       35                 0.4                 0.3                   0                0.02
       36                 0.5                 0.3                   0                0.02
       37                 0.6                 0.3                   0                0.02
       38                 0.7                 0.3                   0                0.02
       39                 0.8                 0.3                   0                0.02
       40                 0.9                 0.3                   0                0.02
       41                   0                 0.4                   0                0.02
       42                 0.1                 0.4                   0                0.02
       43                 0.2                 0.4                   0                0.02
       44                 0.3                 0.4                   0                0.02
       45                 0.4                 0.4                   0                0.02
       46                 0.5                 0.4                   0                0.02
       47                 0.6                 0.4                   0                0.02
       48                 0.7                 0.4                   0                0.02
       49                 0.8                 0.4                   0                0.02
       50                 0.9                 0.4                   0                0.02
       51                   0                 0.5                   0                0.02
       52                 0.1                 0.5                   0                0.02
       53                 0.2                 0.5                   0                0.02
       54                 0.3                 0.5                   0                0.02
       55                 0.4                 0.5                   0                0.02
       56                 0.5                 0.5                   0                0.02
       57                 0.6                 0.5                   0                0.02
       58                 0.7                 0.5                   0                0.02
       59                 0.8                 0.5                   0                0.02
       60                 0.9                 0.5                   0                0.02
       61                   0                 0.6                   0                0.02
       62                 0.1                 0.6                   0                0.02
       63                 0.2                 0.6                   0                0.02
       64                 0.3                 0.6                   0                0.02
       65                 0.4                 0.6                   0                0.02
       66                 0.5                 0.6                   0                0.02
       67                 0.6                 0.6                   0                0.02
       68                 0.7                 0.6                   0                0.02
       69                 0.8                 0.6                   0                0.02
       70                 0.9                 0.6                   0                0.02
       71                   0                 0.7                   0                0.02
       72                 0.1                 0.7                   0                0.02
       73                 0.2                 0.7                   0                0.02
       74                 0.3                 0.7                   0                0.02
       75                 0.4                 0.7                   0                0.02
       76                 0.5                 0.7                   0                0.02
       77                 0.6                 0.7                   0                0.02
       78                 0.7                 0.7                   0                0.02
       79                 0.8                 0.7                   0                0.02
       80                 0.9                 0.7                   0                0.02
       81                   0                 0.8                   0                0.02
       82                 0.1                 0.8                   0                0.02
       83                 0.2                 0.8                   0                0.02
       84                 0.3                 0.8                   0                0.02
       85                 0.4                 0.8                   0                0.02
       86                 0.5                 0.8                   0                0.02
       87                 0.6                 0.8                   0                0.02
       88                 0.7                 0.8                   0                0.02
       89                 0.8                 0.8                   0                0.02
       90                 0.9                 0.8                   0                0.02
       91                   0                 0.9                   0                0.02
       92                 0.1                 0.9                   0                0.02
       93                 0.2                 0.9                   0                0.02
       94                 0.3                 0.9                   0                0.02
       95                 0.4                 0.9                   0                0.02
       96                 0.5                 0.9                   0                0.02
       97                 0.6                 0.9                   0                0.02
       98                 0.7                 0.9                   0                0.02
       99                 0.8                 0.9                   0                0.02
      100                 0.9                 0.9                   0                0.02
 DONE : INIT K-POINTS Time : 0.00563402 (SEC)





 >>>>>>>>>>>>>>>>>>>>>>>>>>>>>>>>>>>>>>>>>>>>>>>>>>>>>>>>>>>>>>>>>>>>>>
 |                                                                    |
 | Setup plane waves:                                                 |
 | Use the energy cutoff and the lattice vectors to generate the      |
 | dimensions of FFT grid. The number of FFT grid on each processor   |
 | is 'nrxx'. The number of plane wave basis in reciprocal space is   |
 | different for charege/potential and wave functions. We also set    |
 | the 'sticks' for the parallel of FFT.                              |
 |                                                                    |
 <<<<<<<<<<<<<<<<<<<<<<<<<<<<<<<<<<<<<<<<<<<<<<<<<<<<<<<<<<<<<<<<<<<<<<





 SETUP THE PLANE WAVE BASIS
     energy cutoff for wavefunc (unit:Ry) = 60
            [fft grid for wave functions] = 40, 24, 150
          [fft grid for charge/potential] = 40, 24, 150
                      [fft grid division] = 2, 2, 2
      [big fft grid for charge/potential] = 20, 12, 75
                                     nbxx = 2400
                                     nrxx = 19200

 SETUP PLANE WAVES FOR CHARGE/POTENTIAL
                    number of plane waves = 69153
                         number of sticks = 713

 SETUP PLANE WAVES FOR WAVE FUNCTIONS
                    number of plane waves = 14235
                         number of sticks = 247

 PARALLEL PW FOR CHARGE/POTENTIAL
     PROC   COLUMNS(POT)             PW
        1             89           8647
        2             89           8641
        3             89           8643
        4             89           8641
        5             89           8641
        6             89           8641
        7             89           8641
        8             90           8658
 --------------- sum -------------------
        8            713          69153

 PARALLEL PW FOR WAVE FUNCTIONS
     PROC     COLUMNS(W)             PW
        1             30           1774
        2             31           1775
        3             31           1779
        4             31           1785
        5             31           1787
        6             31           1775
        7             31           1787
        8             31           1773
 --------------- sum -------------------
        8            247          14235

 SETUP COORDINATES OF PLANE WAVES
              number of total plane waves = 69153

 SETUP COORDINATES OF PLANE WAVES
                            number of |g| = 4275
                                  max |g| = 21.7052
                                  min |g| = 0
 DONE : INIT PLANEWAVE Time : 0.0209711 (SEC)

 DONE : INIT CHARGE Time : 0.0251735 (SEC)

 DONE : INIT POTENTIAL Time : 0.0253232 (SEC)





 >>>>>>>>>>>>>>>>>>>>>>>>>>>>>>>>>>>>>>>>>>>>>>>>>>>>>>>>>>>>>>>>>>>>>>
 |                                                                    |
 | Setup numerical orbitals:                                          |
 | This part setup: numerical atomic orbitals, non-local projectors   |
 | and neutral potential (1D). The atomic orbitals information        |
 | including the radius, angular momentum and zeta number.            |
 | The neutral potential is the sum of local part of pseudopotential  |
 | and potential given by atomic charge, they will cancel out beyond  |
 | a certain radius cutoff, because the Z/r character.                |
 |                                                                    |
 <<<<<<<<<<<<<<<<<<<<<<<<<<<<<<<<<<<<<<<<<<<<<<<<<<<<<<<<<<<<<<<<<<<<<<





 SETUP ONE DIMENSIONAL ORBITALS/POTENTIAL
                        delta k  (1/Bohr) = 0.01
                        delta r    (Bohr) = 0.01
                        dr_uniform (Bohr) = 0.001
                        rmax       (Bohr) = 30
                                    kmesh = 779
      ORBITAL  L  N      nr      dr    RCUT  CHECK_UNIT    NEW_UNIT
            1  0  0     601    0.01       6           1           1
            2  0  1     601    0.01       6           1           1
            3  1  0     601    0.01       6           1           1
            4  1  1     601    0.01       6           1           1
            5  2  0     601    0.01       6           1           1
 SET NONLOCAL PSEUDOPOTENTIAL PROJECTORS
 max number of nonlocal projetors among all species is 4

 SETUP THE TWO-CENTER INTEGRATION TABLES

 SETUP THE DIVISION OF H/S MATRIX
 divide the H&S matrix using 2D block algorithms.
                                     nb2d = 1
                  trace_loc_row dimension = 52
                  trace_loc_col dimension = 52
                                     nloc = 338
                                 init_chg = atomic

 -------------------------------------------
 SELF-CONSISTENT
 -------------------------------------------




 >>>>>>>>>>>>>>>>>>>>>>>>>>>>>>>>>>>>>>>>>>>>>>>>>>>>>>>>>>>>>>>>>>>>>>
 |                                                                    |
 | Search adjacent atoms:                                             |
 | Set the adjacent atoms for each atom and set the periodic boundary |
 | condition for the atoms on real space FFT grid. For k-dependent    |
 | algorithm, we also need to set the sparse H and S matrix element   |
 | for each atom.                                                     |
 |                                                                    |
 <<<<<<<<<<<<<<<<<<<<<<<<<<<<<<<<<<<<<<<<<<<<<<<<<<<<<<<<<<<<<<<<<<<<<<





 SETUP SEARCHING RADIUS FOR PROGRAM TO SEARCH ADJACENT ATOMS
                  longest orb rcut (Bohr) = 6
   longest nonlocal projector rcut (Bohr) = 1.44
              searching radius is (Bohr)) = 14.9
         searching radius unit is (Bohr)) = 1.89

 SETUP EXTENDED REAL SPACE GRID FOR GRID INTEGRATION
                        [real space grid] = 40, 24, 150
               [big cell numbers in grid] = 20, 12, 75
           [meshcell numbers in big cell] = 2, 2, 2
                      [extended fft grid] = 15, 16, 16
              [dimension of extened grid] = 51, 45, 108
                            UnitCellTotal = 45
 No atoms on this sub-FFT-mesh.
              Atom number in sub-FFT-grid = 0
    Local orbitals number in sub-FFT-grid = 0
                                ParaV.nnr = 5407
                                     nnrg = 0
                                nnrg_last = 0
                                 nnrg_now = 0

 LCAO ALGORITHM ------------- ELEC =    1 --------------------------------
 Memory of pvpR : 0 MB

 Density error is 0.17395727127

       Energy                       Rydberg                            eV
   E_KohnSham                -45.4811590466                -618.802914678
     E_Harris                 -45.699983136                -621.780169153
      E_Fermi               -0.362182377083                -4.92774404351

 LCAO ALGORITHM ------------- ELEC =    2 --------------------------------
 Memory of pvpR : 0 MB

 Density error is 0.025183388479

       Energy                       Rydberg                            eV
   E_KohnSham                 -45.527298118                 -619.43066895
     E_Harris                -45.5272164295                 -619.42955752
      E_Fermi               -0.107668481823                 -1.4649048478

 LCAO ALGORITHM ------------- ELEC =    3 --------------------------------
 Memory of pvpR : 0 MB

 Density error is 0.00609722751746

       Energy                       Rydberg                            eV
   E_KohnSham                -45.5273396292                -619.431233739
     E_Harris                -45.5273224079                -619.430999431
      E_Fermi               -0.108012497631                  -1.469585423

 LCAO ALGORITHM ------------- ELEC =    4 --------------------------------
 Memory of pvpR : 0 MB

 Density error is 6.39199633647e-05

       Energy                       Rydberg                            eV
   E_KohnSham                -45.5273408644                -619.431250544
     E_Harris                 -45.527340849                -619.431250335
      E_Fermi               -0.110201514567                -1.49936852634

 LCAO ALGORITHM ------------- ELEC =    5 --------------------------------
 Memory of pvpR : 0 MB

 Density error is 2.14608085589e-05

       Energy                       Rydberg                            eV
   E_KohnSham                -45.5273408535                -619.431250395
     E_Harris                -45.5273408563                -619.431250434
      E_Fermi               -0.110157304403                -1.49876701621

 LCAO ALGORITHM ------------- ELEC =    6 --------------------------------
 Memory of pvpR : 0 MB

 Density error is 4.99627757399e-06

       Energy                       Rydberg                            eV
   E_KohnSham                -45.5273408568                -619.431250441
     E_Harris                 -45.527340857                -619.431250443
       E_band                -12.6713040515                -172.401936192
   E_one_elec                -328.292580347                -4466.64970384
    E_Hartree                +166.958114751                +2271.58168795
         E_xc                -14.0549630868                 -191.22758316
      E_Ewald                +129.862087832                +1766.86434869
      E_demet            -5.59281923198e-09            -7.60942094389e-08
      E_descf                            +0                            +0
     E_efield                            +0                            +0
        E_exx                            +0                            +0
      E_Fermi               -0.110165323722                -1.49887612463

 charge density convergence is achieved
 final etot is -619.431250441 eV

 STATE ENERGY(eV) AND OCCUPATIONS    NSPIN == 1
 1/100 kpoint (Cartesian) = 0 0 0 (1095 pws)
       1       -21.1019      0.0200000
       2       -15.8705      0.0200000
       3       -14.9078      0.0200000
       4       -9.24671      0.0200000
       5       -8.09948      0.0200000
       6       -4.70774      0.0200000
       7       -4.70442      0.0200000
       8       -3.90895      0.0200000
       9       0.305194        0.00000
      10        6.01357        0.00000
      11        6.87063        0.00000
      12        6.90526        0.00000
      13        7.52152        0.00000
      14        10.1916        0.00000
      15        11.3992        0.00000
      16        12.3093        0.00000
      17        14.6097        0.00000
      18        16.1507        0.00000

 2/100 kpoint (Cartesian) = 0.0202938 -0.0117335 0.00000 (1091 pws)
       1       -21.0441      0.0200000
       2       -16.5421      0.0200000
       3       -14.1480      0.0200000
       4       -9.17616      0.0200000
       5       -8.04050      0.0200000
       6       -4.94569      0.0200000
       7       -4.83539      0.0200000
       8       -4.27204      0.0200000
       9       0.772918        0.00000
      10        6.04775        0.00000
      11        6.93747        0.00000
      12        7.13462        0.00000
      13        7.59230        0.00000
      14        9.99419        0.00000
      15        11.5129        0.00000
      16        12.3827        0.00000
      17        13.7559        0.00000
      18        16.6482        0.00000

 3/100 kpoint (Cartesian) = 0.0405875 -0.0234669 0.00000 (1096 pws)
       1       -20.8706      0.0200000
       2       -17.4491      0.0200000
       3       -12.9795      0.0200000
       4       -8.96497      0.0200000
       5       -7.86524      0.0200000
       6       -5.61901      0.0200000
       7       -5.18196      0.0200000
       8       -5.06316      0.0200000
       9        1.86768        0.00000
      10        6.14737        0.00000
      11        6.98939        0.00000
      12        7.79953        0.00000
      13        7.88794        0.00000
      14        9.42281        0.00000
      15        11.8770        0.00000
      16        12.4433        0.00000
      17        12.6065        0.00000
      18        16.8298        0.00000

 4/100 kpoint (Cartesian) = 0.0608813 -0.0352004 0.00000 (1094 pws)
       1       -20.5806      0.0200000
       2       -18.2853      0.0200000
       3       -11.7178      0.0200000
       4       -8.61467      0.0200000
       5       -7.57926      0.0200000
       6       -6.60903      0.0200000
       7       -5.94319      0.0200000
       8       -5.66494      0.0200000
       9        3.22168        0.00000
      10        6.30311        0.00000
      11        6.98232        0.00000
      12        8.14056        0.00000
      13        8.53121        0.00000
      14        9.04064        0.00000
      15        11.2183        0.00000
      16        12.5161        0.00000
      17        12.9924        0.00000
      18        15.6995        0.00000

 5/100 kpoint (Cartesian) = 0.0811751 -0.0469338 0.00000 (1106 pws)
       1       -20.1747      0.0200000
       2       -19.0232      0.0200000
       3       -10.4074      0.0200000
       4       -8.12840      0.0200000
       5       -7.79578      0.0200000
       6       -7.19304      0.0200000
       7       -6.77632      0.0200000
       8       -6.20034      0.0200000
       9        4.65722        0.00000
      10        6.49765        0.00000
      11        6.87965        0.00000
      12        7.38964        0.00000
      13        8.63505        0.00000
      14        10.1669        0.00000
      15        10.4936        0.00000
      16        13.3931        0.00000
      17        13.5627        0.00000
      18        13.9303        0.00000

 6/100 kpoint (Cartesian) = 0.101469 -0.0586673 0.00000 (1106 pws)
       1       -19.6545      0.0200000
       2       -19.6545      0.0200000
       3       -9.08440      0.0200000
       4       -9.08440      0.0200000
       5       -7.51200      0.0200000
       6       -7.51200      0.0200000
       7       -6.72411      0.0200000
       8       -6.72411      0.0200000
       9        6.07313        0.00000
      10        6.07313        0.00000
      11        6.70310        0.00000
      12        6.70310        0.00000
      13        9.30633        0.00000
      14        9.30633        0.00000
      15        12.1550        0.00000
      16        12.1550        0.00000
      17        14.3500        0.00000
      18        14.3500        0.00000

 7/100 kpoint (Cartesian) = 0.121763 -0.0704007 0.00000 (1112 pws)
       1       -20.1747      0.0200000
       2       -19.0232      0.0200000
       3       -10.4074      0.0200000
       4       -8.12840      0.0200000
       5       -7.79578      0.0200000
       6       -7.19304      0.0200000
       7       -6.77632      0.0200000
       8       -6.20034      0.0200000
       9        4.65722        0.00000
      10        6.49765        0.00000
      11        6.87965        0.00000
      12        7.38964        0.00000
      13        8.63505        0.00000
      14        10.1669        0.00000
      15        10.4936        0.00000
      16        13.3931        0.00000
      17        13.5627        0.00000
      18        13.9303        0.00000

 8/100 kpoint (Cartesian) = 0.142056 -0.0821342 0.00000 (1110 pws)
       1       -20.5806      0.0200000
       2       -18.2853      0.0200000
       3       -11.7178      0.0200000
       4       -8.61467      0.0200000
       5       -7.57926      0.0200000
       6       -6.60903      0.0200000
       7       -5.94319      0.0200000
       8       -5.66494      0.0200000
       9        3.22168        0.00000
      10        6.30311        0.00000
      11        6.98232        0.00000
      12        8.14056        0.00000
      13        8.53121        0.00000
      14        9.04064        0.00000
      15        11.2183        0.00000
      16        12.5161        0.00000
      17        12.9924        0.00000
      18        15.6995        0.00000

 9/100 kpoint (Cartesian) = 0.162350 -0.0938677 0.00000 (1104 pws)
       1       -20.8706      0.0200000
       2       -17.4491      0.0200000
       3       -12.9795      0.0200000
       4       -8.96497      0.0200000
       5       -7.86524      0.0200000
       6       -5.61901      0.0200000
       7       -5.18196      0.0200000
       8       -5.06316      0.0200000
       9        1.86768        0.00000
      10        6.14737        0.00000
      11        6.98939        0.00000
      12        7.79953        0.00000
      13        7.88794        0.00000
      14        9.42281        0.00000
      15        11.8770        0.00000
      16        12.4433        0.00000
      17        12.6065        0.00000
      18        16.8298        0.00000

 10/100 kpoint (Cartesian) = 0.182644 -0.105601 0.00000 (1102 pws)
       1       -21.0441      0.0200000
       2       -16.5421      0.0200000
       3       -14.1480      0.0200000
       4       -9.17616      0.0200000
       5       -8.04050      0.0200000
       6       -4.94569      0.0200000
       7       -4.83539      0.0200000
       8       -4.27204      0.0200000
       9       0.772918        0.00000
      10        6.04775        0.00000
      11        6.93747        0.00000
      12        7.13462        0.00000
      13        7.59230        0.00000
      14        9.99419        0.00000
      15        11.5129        0.00000
      16        12.3827        0.00000
      17        13.7559        0.00000
      18        16.6482        0.00000

 11/100 kpoint (Cartesian) = 0.0202938 0.0350994 0.00000 (1061 pws)
       1       -20.9290      0.0200000
       2       -15.7196      0.0200000
       3       -14.7577      0.0200000
       4       -9.03597      0.0200000
       5       -8.83804      0.0200000
       6       -5.38831      0.0200000
       7       -5.08749      0.0200000
       8       -3.68931      0.0200000
       9       0.227947        0.00000
      10        7.00832        0.00000
      11        7.09033        0.00000
      12        7.62318        0.00000
      13        7.73335        0.00000
      14        9.60979        0.00000
      15        11.7454        0.00000
      16        12.5297        0.00000
      17        14.4478        0.00000
      18        16.1763        0.00000

 12/100 kpoint (Cartesian) = 0.0405875 0.0233659 0.00000 (1074 pws)
       1       -20.8711      0.0200000
       2       -16.3839      0.0200000
       3       -14.0095      0.0200000
       4       -8.96566      0.0200000
       5       -8.77752      0.0200000
       6       -5.62495      0.0200000
       7       -5.17594      0.0200000
       8       -4.06168      0.0200000
       9       0.693311        0.00000
      10        6.98183        0.00000
      11        7.12436        0.00000
      12        7.80007        0.00000
      13        7.90938        0.00000
      14        9.42187        0.00000
      15        11.8661        0.00000
      16        12.6055        0.00000
      17        13.8015        0.00000
      18        16.0173        0.00000

 13/100 kpoint (Cartesian) = 0.0608813 0.0116325 0.00000 (1084 pws)
       1       -20.6972      0.0200000
       2       -17.2848      0.0200000
       3       -12.8607      0.0200000
       4       -8.75519      0.0200000
       5       -8.59690      0.0200000
       6       -6.18651      0.0200000
       7       -5.53580      0.0200000
       8       -4.86137      0.0200000
       9        1.76213        0.00000
      10        7.15390        0.00000
      11        7.22272        0.00000
      12        8.00954        0.00000
      13        8.41062        0.00000
      14        8.88183        0.00000
      15        12.2885        0.00000
      16        12.6040        0.00000
      17        12.8326        0.00000
      18        15.2141        0.00000

 14/100 kpoint (Cartesian) = 0.0811751 -0.000100989 0.00000 (1086 pws)
       1       -20.4070      0.0200000
       2       -18.1171      0.0200000
       3       -11.6295      0.0200000
       4       -8.40615      0.0200000
       5       -8.29918      0.0200000
       6       -6.97273      0.0200000
       7       -6.12327      0.0200000
       8       -5.74284      0.0200000
       9        3.06188        0.00000
      10        7.37283        0.00000
      11        7.50674        0.00000
      12        8.04614        0.00000
      13        8.37144        0.00000
      14        8.95525        0.00000
      15        11.4159        0.00000
      16        13.0904        0.00000
      17        13.2162        0.00000
      18        13.9246        0.00000

 15/100 kpoint (Cartesian) = 0.101469 -0.0118344 0.00000 (1094 pws)
       1       -20.0014      0.0200000
       2       -18.8525      0.0200000
       3       -10.3681      0.0200000
       4       -7.96740      0.0200000
       5       -7.92169      0.0200000
       6       -7.88975      0.0200000
       7       -6.77492      0.0200000
       8       -6.57430      0.0200000
       9        4.42265        0.00000
      10        6.98118        0.00000
      11        7.54853        0.00000
      12        7.72573        0.00000
      13        8.86614        0.00000
      14        9.79868        0.00000
      15        10.3781        0.00000
      16        12.4557        0.00000
      17        13.7707        0.00000
      18        14.2137        0.00000

 16/100 kpoint (Cartesian) = 0.121763 -0.0235679 0.00000 (1098 pws)
       1       -19.4822      0.0200000
       2       -19.4822      0.0200000
       3       -9.12520      0.0200000
       4       -9.12520      0.0200000
       5       -7.37691      0.0200000
       6       -7.37690      0.0200000
       7       -7.30757      0.0200000
       8       -7.30756      0.0200000
       9        5.75212        0.00000
      10        5.75212        0.00000
      11        7.69889        0.00000
      12        7.69889        0.00000
      13        9.52605        0.00000
      14        9.52605        0.00000
      15        11.0217        0.00000
      16        11.0217        0.00000
      17        14.5166        0.00000
      18        14.5166        0.00000

 17/100 kpoint (Cartesian) = 0.142056 -0.0353014 0.00000 (1098 pws)
       1       -20.0014      0.0200000
       2       -18.8525      0.0200000
       3       -10.3681      0.0200000
       4       -7.96740      0.0200000
       5       -7.92169      0.0200000
       6       -7.88975      0.0200000
       7       -6.77492      0.0200000
       8       -6.57430      0.0200000
       9        4.42265        0.00000
      10        6.98118        0.00000
      11        7.54853        0.00000
      12        7.72573        0.00000
      13        8.86614        0.00000
      14        9.79867        0.00000
      15        10.3781        0.00000
      16        12.4557        0.00000
      17        13.7707        0.00000
      18        14.2137        0.00000

 18/100 kpoint (Cartesian) = 0.162350 -0.0470348 0.00000 (1098 pws)
       1       -20.4070      0.0200000
       2       -18.1171      0.0200000
       3       -11.6295      0.0200000
       4       -8.40615      0.0200000
       5       -8.29918      0.0200000
       6       -6.97273      0.0200000
       7       -6.12327      0.0200000
       8       -5.74284      0.0200000
       9        3.06188        0.00000
      10        7.37283        0.00000
      11        7.50674        0.00000
      12        8.04614        0.00000
      13        8.37144        0.00000
      14        8.95525        0.00000
      15        11.4159        0.00000
      16        13.0904        0.00000
      17        13.2162        0.00000
      18        13.9246        0.00000

 19/100 kpoint (Cartesian) = 0.182644 -0.0587683 0.00000 (1094 pws)
       1       -20.6972      0.0200000
       2       -17.2848      0.0200000
       3       -12.8607      0.0200000
       4       -8.75519      0.0200000
       5       -8.59690      0.0200000
       6       -6.18651      0.0200000
       7       -5.53580      0.0200000
       8       -4.86137      0.0200000
       9        1.76213        0.00000
      10        7.15390        0.00000
      11        7.22272        0.00000
      12        8.00954        0.00000
      13        8.41062        0.00000
      14        8.88183        0.00000
      15        12.2885        0.00000
      16        12.6040        0.00000
      17        12.8326        0.00000
      18        15.2141        0.00000

 20/100 kpoint (Cartesian) = 0.202938 -0.0705017 0.00000 (1094 pws)
       1       -20.8711      0.0200000
       2       -16.3839      0.0200000
       3       -14.0095      0.0200000
       4       -8.96566      0.0200000
       5       -8.77752      0.0200000
       6       -5.62495      0.0200000
       7       -5.17594      0.0200000
       8       -4.06168      0.0200000
       9       0.693311        0.00000
      10        6.98183        0.00000
      11        7.12436        0.00000
      12        7.80007        0.00000
      13        7.90938        0.00000
      14        9.42187        0.00000
      15        11.8661        0.00000
      16        12.6055        0.00000
      17        13.8015        0.00000
      18        16.0173        0.00000

 21/100 kpoint (Cartesian) = 0.0405875 0.0701988 0.00000 (1055 pws)
       1       -20.4087      0.0200000
       2       -15.2683      0.0200000
       3       -14.3449      0.0200000
       4       -10.5202      0.0200000
       5       -8.40821      0.0200000
       6       -6.96835      0.0200000
       7       -6.12804      0.0200000
       8       -3.03175      0.0200000
       9      -0.134860        0.00000
      10        7.49861        0.00000
      11        8.04586        0.00000
      12        8.37273        0.00000
      13        9.00513        0.00000
      14        9.72660        0.00000
      15        13.0567        0.00000
      16        13.2120        0.00000
      17        14.0110        0.00000
      18        15.8345        0.00000

 22/100 kpoint (Cartesian) = 0.0608813 0.0584653 0.00000 (1057 pws)
       1       -20.3507      0.0200000
       2       -15.9148      0.0200000
       3       -13.6358      0.0200000
       4       -10.4461      0.0200000
       5       -8.33883      0.0200000
       6       -7.23972      0.0200000
       7       -6.08086      0.0200000
       8       -3.44526      0.0200000
       9       0.334606        0.00000
      10        7.17625        0.00000
      11        7.87312        0.00000
      12        8.42305        0.00000
      13        9.60087        0.00000
      14        9.76174        0.00000
      15        13.0996        0.00000
      16        13.3012        0.00000
      17        13.6699        0.00000
      18        15.2772        0.00000

 23/100 kpoint (Cartesian) = 0.0811751 0.0467318 0.00000 (1059 pws)
       1       -20.1768      0.0200000
       2       -16.7972      0.0200000
       3       -12.5802      0.0200000
       4       -10.2153      0.0200000
       5       -8.13123      0.0200000
       6       -7.80604      0.0200000
       7       -6.18800      0.0200000
       8       -4.27599      0.0200000
       9        1.32741        0.00000
      10        6.90266        0.00000
      11        7.38608        0.00000
      12        8.63391        0.00000
      13        9.85787        0.00000
      14        10.5047        0.00000
      15        12.8108        0.00000
      16        13.3681        0.00000
      17        13.5597        0.00000
      18        13.7689        0.00000

 24/100 kpoint (Cartesian) = 0.101469 0.0349984 0.00000 (1068 pws)
       1       -19.8874      0.0200000
       2       -17.6169      0.0200000
       3       -11.5278      0.0200000
       4       -9.79578      0.0200000
       5       -8.46122      0.0200000
       6       -7.78712      0.0200000
       7       -6.62543      0.0200000
       8       -5.15918      0.0200000
       9        2.46424        0.00000
      10        6.65455        0.00000
      11        7.08224        0.00000
      12        9.00009        0.00000
      13        9.96218        0.00000
      14        10.9821        0.00000
      15        11.7240        0.00000
      16        12.3065        0.00000
      17        13.9705        0.00000
      18        14.1901        0.00000

 25/100 kpoint (Cartesian) = 0.121763 0.0232649 0.00000 (1074 pws)
       1       -19.4837      0.0200000
       2       -18.3439      0.0200000
       3       -10.5978      0.0200000
       4       -9.13711      0.0200000
       5       -9.13440      0.0200000
       6       -7.36229      0.0200000
       7       -7.30980      0.0200000
       8       -5.98200      0.0200000
       9        3.61481        0.00000
      10        5.74871        0.00000
      11        7.72998        0.00000
      12        9.52516        0.00000
      13        9.72450        0.00000
      14        10.8546        0.00000
      15        10.9931        0.00000
      16        11.1444        0.00000
      17        14.5160        0.00000
      18        15.5123        0.00000

 26/100 kpoint (Cartesian) = 0.142056 0.0115315 0.00000 (1078 pws)
       1       -18.9680      0.0200000
       2       -18.9680      0.0200000
       3       -9.82877      0.0200000
       4       -9.82877      0.0200000
       5       -8.26272      0.0200000
       6       -8.26272      0.0200000
       7       -6.70487      0.0200000
       8       -6.70487      0.0200000
       9        4.72225        0.00000
      10        4.72225        0.00000
      11        8.72225        0.00000
      12        8.72225        0.00000
      13        10.2200        0.00000
      14        10.2200        0.00000
      15        10.8453        0.00000
      16        10.8453        0.00000
      17        15.1574        0.00000
      18        15.1574        0.00000

 27/100 kpoint (Cartesian) = 0.162350 -0.000201977 0.00000 (1084 pws)
       1       -19.4837      0.0200000
       2       -18.3439      0.0200000
       3       -10.5978      0.0200000
       4       -9.13711      0.0200000
       5       -9.13440      0.0200000
       6       -7.36229      0.0200000
       7       -7.30980      0.0200000
       8       -5.98200      0.0200000
       9        3.61481        0.00000
      10        5.74871        0.00000
      11        7.72997        0.00000
      12        9.52516        0.00000
      13        9.72450        0.00000
      14        10.8546        0.00000
      15        10.9931        0.00000
      16        11.1444        0.00000
      17        14.5160        0.00000
      18        15.5123        0.00000

 28/100 kpoint (Cartesian) = 0.182644 -0.0119354 0.00000 (1084 pws)
       1       -19.8874      0.0200000
       2       -17.6169      0.0200000
       3       -11.5278      0.0200000
       4       -9.79578      0.0200000
       5       -8.46122      0.0200000
       6       -7.78712      0.0200000
       7       -6.62543      0.0200000
       8       -5.15918      0.0200000
       9        2.46424        0.00000
      10        6.65455        0.00000
      11        7.08224        0.00000
      12        9.00009        0.00000
      13        9.96218        0.00000
      14        10.9821        0.00000
      15        11.7240        0.00000
      16        12.3065        0.00000
      17        13.9705        0.00000
      18        14.1901        0.00000

 29/100 kpoint (Cartesian) = 0.202938 -0.0236689 0.00000 (1080 pws)
       1       -20.1768      0.0200000
       2       -16.7972      0.0200000
       3       -12.5802      0.0200000
       4       -10.2153      0.0200000
       5       -8.13123      0.0200000
       6       -7.80604      0.0200000
       7       -6.18800      0.0200000
       8       -4.27599      0.0200000
       9        1.32741        0.00000
      10        6.90265        0.00000
      11        7.38608        0.00000
      12        8.63391        0.00000
      13        9.85787        0.00000
      14        10.5047        0.00000
      15        12.8108        0.00000
      16        13.3681        0.00000
      17        13.5597        0.00000
      18        13.7689        0.00000

 30/100 kpoint (Cartesian) = 0.223231 -0.0354023 0.00000 (1082 pws)
       1       -20.3507      0.0200000
       2       -15.9148      0.0200000
       3       -13.6358      0.0200000
       4       -10.4461      0.0200000
       5       -8.33883      0.0200000
       6       -7.23972      0.0200000
       7       -6.08086      0.0200000
       8       -3.44526      0.0200000
       9       0.334606        0.00000
      10        7.17625        0.00000
      11        7.87312        0.00000
      12        8.42305        0.00000
      13        9.60087        0.00000
      14        9.76174        0.00000
      15        13.0996        0.00000
      16        13.3012        0.00000
      17        13.6699        0.00000
      18        15.2772        0.00000

 31/100 kpoint (Cartesian) = 0.0608813 0.105298 0.00000 (1037 pws)
       1       -19.5439      0.0200000
       2       -14.5205      0.0200000
       3       -14.0294      0.0200000
       4       -12.0978      0.0200000
       5       -8.80871      0.0200000
       6       -7.56994      0.0200000
       7       -7.37995      0.0200000
       8       -1.94196      0.0200000
       9       -1.05580    4.11532e-08
      10        5.91392        0.00000
      11        8.41557        0.00000
      12        9.48763        0.00000
      13        10.0757        0.00000
      14        12.5599        0.00000
      15        13.3606        0.00000
      16        14.3811        0.00000
      17        14.4793        0.00000
      18        15.5253        0.00000

 32/100 kpoint (Cartesian) = 0.0811751 0.0935647 0.00000 (1043 pws)
       1       -19.4864      0.0200000
       2       -15.1708      0.0200000
       3       -13.5009      0.0200000
       4       -11.8528      0.0200000
       5       -9.12721      0.0200000
       6       -7.37214      0.0200000
       7       -7.31311      0.0200000
       8       -2.54932      0.0200000
       9      -0.448827        0.00000
      10        5.75149        0.00000
      11        7.73125        0.00000
      12        9.52314        0.00000
      13        11.0516        0.00000
      14        12.5188        0.00000
      15        12.8565        0.00000
      16        14.5065        0.00000
      17        14.6891        0.00000
      18        15.4574        0.00000

 33/100 kpoint (Cartesian) = 0.101469 0.0818312 0.00000 (1043 pws)
       1       -19.3141      0.0200000
       2       -16.0099      0.0200000
       3       -13.0008      0.0200000
       4       -11.1529      0.0200000
       5       -9.74818      0.0200000
       6       -7.13928      0.0200000
       7       -7.11335      0.0200000
       8       -3.42797      0.0200000
       9       0.437031        0.00000
      10        5.30246        0.00000
      11        6.91266        0.00000
      12        9.75945        0.00000
      13        11.3989        0.00000
      14        12.6001        0.00000
      15        12.7620        0.00000
      16        14.5933        0.00000
      17        14.8602        0.00000
      18        15.2796        0.00000

 34/100 kpoint (Cartesian) = 0.121763 0.0700978 0.00000 (1041 pws)
       1       -19.0279      0.0200000
       2       -16.8004      0.0200000
       3       -12.5898      0.0200000
       4       -10.4184      0.0200000
       5       -10.2010      0.0200000
       6       -7.17565      0.0200000
       7       -6.78295      0.0200000
       8       -4.28126      0.0200000
       9        1.32693        0.00000
      10        4.65226        0.00000
      11        6.53902        0.00000
      12        9.91304        0.00000
      13        10.1599        0.00000
      14        12.7762        0.00000
      15        13.7428        0.00000
      16        13.9296        0.00000
      17        15.3911        0.00000
      18        15.4191        0.00000

 35/100 kpoint (Cartesian) = 0.142056 0.0583643 0.00000 (1047 pws)
       1       -18.6293      0.0200000
       2       -17.5091      0.0200000
       3       -12.1505      0.0200000
       4       -11.0604      0.0200000
       5       -9.19810      0.0200000
       6       -7.56890      0.0200000
       7       -6.32610      0.0200000
       8       -5.06282      0.0200000
       9        2.20122        0.00000
      10        3.88457        0.00000
      11        6.71894        0.00000
      12        8.52950        0.00000
      13        10.7124        0.00000
      14        12.2052        0.00000
      15        13.6109        0.00000
      16        14.1463        0.00000
      17        16.0274        0.00000
      18        16.5449        0.00000

 36/100 kpoint (Cartesian) = 0.162350 0.0466309 0.00000 (1056 pws)
       1       -18.1214      0.0200000
       2       -18.1214      0.0200000
       3       -11.6421      0.0200000
       4       -11.6421      0.0200000
       5       -8.27945      0.0200000
       6       -8.27945      0.0200000
       7       -5.74940      0.0200000
       8       -5.74940      0.0200000
       9        3.05734        0.00000
      10        3.05734        0.00000
      11        7.41922        0.00000
      12        7.41922        0.00000
      13        11.4084        0.00000
      14        11.4084        0.00000
      15        13.8770        0.00000
      16        13.8770        0.00000
      17        16.6010        0.00000
      18        16.6010        0.00000

 37/100 kpoint (Cartesian) = 0.182644 0.0348974 0.00000 (1054 pws)
       1       -18.6293      0.0200000
       2       -17.5091      0.0200000
       3       -12.1505      0.0200000
       4       -11.0604      0.0200000
       5       -9.19810      0.0200000
       6       -7.56890      0.0200000
       7       -6.32610      0.0200000
       8       -5.06282      0.0200000
       9        2.20122        0.00000
      10        3.88457        0.00000
      11        6.71893        0.00000
      12        8.52950        0.00000
      13        10.7124        0.00000
      14        12.2052        0.00000
      15        13.6109        0.00000
      16        14.1463        0.00000
      17        16.0274        0.00000
      18        16.5449        0.00000

 38/100 kpoint (Cartesian) = 0.202938 0.0231639 0.00000 (1058 pws)
       1       -19.0279      0.0200000
       2       -16.8004      0.0200000
       3       -12.5898      0.0200000
       4       -10.4184      0.0200000
       5       -10.2010      0.0200000
       6       -7.17565      0.0200000
       7       -6.78295      0.0200000
       8       -4.28126      0.0200000
       9        1.32693        0.00000
      10        4.65226        0.00000
      11        6.53902        0.00000
      12        9.91305        0.00000
      13        10.1599        0.00000
      14        12.7762        0.00000
      15        13.7428        0.00000
      16        13.9296        0.00000
      17        15.3911        0.00000
      18        15.4191        0.00000

 39/100 kpoint (Cartesian) = 0.223231 0.0114305 0.00000 (1058 pws)
       1       -19.3141      0.0200000
       2       -16.0099      0.0200000
       3       -13.0008      0.0200000
       4       -11.1529      0.0200000
       5       -9.74818      0.0200000
       6       -7.13928      0.0200000
       7       -7.11335      0.0200000
       8       -3.42797      0.0200000
       9       0.437032        0.00000
      10        5.30246        0.00000
      11        6.91266        0.00000
      12        9.75945        0.00000
      13        11.3989        0.00000
      14        12.6001        0.00000
      15        12.7620        0.00000
      16        14.5933        0.00000
      17        14.8602        0.00000
      18        15.2796        0.00000

 40/100 kpoint (Cartesian) = 0.243525 -0.000302966 0.00000 (1053 pws)
       1       -19.4864      0.0200000
       2       -15.1708      0.0200000
       3       -13.5009      0.0200000
       4       -11.8528      0.0200000
       5       -9.12720      0.0200000
       6       -7.37214      0.0200000
       7       -7.31311      0.0200000
       8       -2.54932      0.0200000
       9      -0.448826        0.00000
      10        5.75149        0.00000
      11        7.73125        0.00000
      12        9.52314        0.00000
      13        11.0516        0.00000
      14        12.5188        0.00000
      15        12.8565        0.00000
      16        14.5065        0.00000
      17        14.6891        0.00000
      18        15.4574        0.00000

 41/100 kpoint (Cartesian) = 0.0811751 0.140398 0.00000 (1015 pws)
       1       -18.3504      0.0200000
       2       -15.1873      0.0200000
       3       -13.4813      0.0200000
       4       -11.8558      0.0200000
       5       -10.5847      0.0200000
       6       -9.14293      0.0200000
       7       -5.98993      0.0200000
       8       -2.56408      0.0200000
       9      -0.435776        0.00000
      10        3.62010        0.00000
      11        9.73421        0.00000
      12        10.9085        0.00000
      13        11.1420        0.00000
      14        12.5663        0.00000
      15        12.8449        0.00000
      16        14.6869        0.00000
      17        15.4476        0.00000
      18        15.7545        0.00000

 42/100 kpoint (Cartesian) = 0.101469 0.128664 0.00000 (1025 pws)
       1       -18.2940      0.0200000
       2       -15.1806      0.0200000
       3       -13.8585      0.0200000
       4       -11.3841      0.0200000
       5       -10.9538      0.0200000
       6       -8.81544      0.0200000
       7       -5.93041      0.0200000
       8       -2.69636      0.0200000
       9      -0.354037        0.00000
      10        3.46989        0.00000
      11        8.67067        0.00000
      12        11.1258        0.00000
      13        11.3232        0.00000
      14        12.2326        0.00000
      15        13.5728        0.00000
      16        14.9856        0.00000
      17        15.7595        0.00000
      18        15.9751        0.00000

 43/100 kpoint (Cartesian) = 0.121763 0.116931 0.00000 (1029 pws)
       1       -18.1252      0.0200000
       2       -15.2920      0.0200000
       3       -14.3333      0.0200000
       4       -11.6337      0.0200000
       5       -10.5065      0.0200000
       6       -8.28608      0.0200000
       7       -5.75363      0.0200000
       8       -3.05039      0.0200000
       9      -0.123980        0.00000
      10        3.06231        0.00000
      11        7.42297        0.00000
      12        9.78621        0.00000
      13        11.4025        0.00000
      14        13.9408        0.00000
      15        13.9749        0.00000
      16        15.8410        0.00000
      17        16.1131        0.00000
      18        16.5841        0.00000

 44/100 kpoint (Cartesian) = 0.142056 0.105197 0.00000 (1027 pws)
       1       -17.8455      0.0200000
       2       -15.7772      0.0200000
       3       -14.3271      0.0200000
       4       -12.3363      0.0200000
       5       -9.58516      0.0200000
       6       -7.91181      0.0200000
       7       -5.46531      0.0200000
       8       -3.53825      0.0200000
       9       0.231149        0.00000
      10        2.49472        0.00000
      11        6.54960        0.00000
      12        8.34643        0.00000
      13        11.8424        0.00000
      14        14.1076        0.00000
      15        15.6066        0.00000
      16        15.9813        0.00000
      17        17.1228        0.00000
      18        17.4565        0.00000

 45/100 kpoint (Cartesian) = 0.162350 0.0934637 0.00000 (1024 pws)
       1       -17.4582      0.0200000
       2       -16.3950      0.0200000
       3       -14.0150      0.0200000
       4       -12.9872      0.0200000
       5       -8.75729      0.0200000
       6       -7.84485      0.0200000
       7       -5.07617      0.0200000
       8       -4.07702      0.0200000
       9       0.695041        0.00000
      10        1.86576        0.00000
      11        6.19693        0.00000
      12        7.17723        0.00000
      13        12.4270        0.00000
      14        13.7806        0.00000
      15        15.9780        0.00000
      16        16.8014        0.00000
      17        17.2750        0.00000
      18        18.4213        0.00000

 46/100 kpoint (Cartesian) = 0.182644 0.0817302 0.00000 (1028 pws)
       1       -16.9697      0.0200000
       2       -16.9697      0.0200000
       3       -13.5547      0.0200000
       4       -13.5547      0.0200000
       5       -8.14155      0.0200000
       6       -8.14155      0.0200000
       7       -4.60402      0.0200000
       8       -4.60402      0.0200000
       9        1.24970        0.00000
      10        1.24970        0.00000
      11        6.42173        0.00000
      12        6.42174        0.00000
      13        13.1145        0.00000
      14        13.1145        0.00000
      15        16.3614        0.00000
      16        16.3614        0.00000
      17        18.3757        0.00000
      18        18.3757        0.00000

[...]

 79/100 kpoint (Cartesian) = 0.304407 0.151828 0.00000 (1005 pws)
       1       -19.3141      0.0200000
       2       -16.0099      0.0200000
       3       -13.0008      0.0200000
       4       -11.1529      0.0200000
       5       -9.74818      0.0200000
       6       -7.13928      0.0200000
       7       -7.11335      0.0200000
       8       -3.42797      0.0200000
       9       0.437031        0.00000
      10        5.30246        0.00000
      11        6.91266        0.00000
      12        9.75945        0.00000
      13        11.3989        0.00000
      14        12.6001        0.00000
      15        12.7620        0.00000
      16        14.5933        0.00000
      17        14.8602        0.00000
      18        15.2796        0.00000

 80/100 kpoint (Cartesian) = 0.324700 0.140095 0.00000 (1005 pws)
       1       -19.4864      0.0200000
       2       -15.1708      0.0200000
       3       -13.5009      0.0200000
       4       -11.8528      0.0200000
       5       -9.12721      0.0200000
       6       -7.37214      0.0200000
       7       -7.31311      0.0200000
       8       -2.54932      0.0200000
       9      -0.448827        0.00000
      10        5.75149        0.00000
      11        7.73125        0.00000
      12        9.52314        0.00000
      13        11.0516        0.00000
      14        12.5188        0.00000
      15        12.8565        0.00000
      16        14.5065        0.00000
      17        14.6891        0.00000
      18        15.4574        0.00000

 81/100 kpoint (Cartesian) = 0.162350 0.280795 0.00000 (953 pws)
       1       -20.4087      0.0200000
       2       -15.2683      0.0200000
       3       -14.3449      0.0200000
       4       -10.5202      0.0200000
       5       -8.40821      0.0200000
       6       -6.96835      0.0200000
       7       -6.12804      0.0200000
       8       -3.03175      0.0200000
       9      -0.134860        0.00000
      10        7.49861        0.00000
      11        8.04586        0.00000
      12        8.37273        0.00000
      13        9.00513        0.00000
      14        9.72660        0.00000
      15        13.0567        0.00000
      16        13.2120        0.00000
      17        14.0110        0.00000
      18        15.8345        0.00000

 82/100 kpoint (Cartesian) = 0.182644 0.269062 0.00000 (959 pws)
       1       -20.3507      0.0200000
       2       -15.9148      0.0200000
       3       -13.6358      0.0200000
       4       -10.4461      0.0200000
       5       -8.33883      0.0200000
       6       -7.23972      0.0200000
       7       -6.08086      0.0200000
       8       -3.44526      0.0200000
       9       0.334606        0.00000
      10        7.17625        0.00000
      11        7.87312        0.00000
      12        8.42305        0.00000
      13        9.60087        0.00000
      14        9.76174        0.00000
      15        13.0996        0.00000
      16        13.3012        0.00000
      17        13.6699        0.00000
      18        15.2772        0.00000

 83/100 kpoint (Cartesian) = 0.202938 0.257328 0.00000 (963 pws)
       1       -20.1768      0.0200000
       2       -16.7972      0.0200000
       3       -12.5802      0.0200000
       4       -10.2153      0.0200000
       5       -8.13123      0.0200000
       6       -7.80604      0.0200000
       7       -6.18800      0.0200000
       8       -4.27599      0.0200000
       9        1.32741        0.00000
      10        6.90265        0.00000
      11        7.38608        0.00000
      12        8.63391        0.00000
      13        9.85787        0.00000
      14        10.5047        0.00000
      15        12.8108        0.00000
      16        13.3681        0.00000
      17        13.5597        0.00000
      18        13.7689        0.00000

 84/100 kpoint (Cartesian) = 0.223231 0.245595 0.00000 (963 pws)
       1       -19.8874      0.0200000
       2       -17.6169      0.0200000
       3       -11.5278      0.0200000
       4       -9.79578      0.0200000
       5       -8.46122      0.0200000
       6       -7.78712      0.0200000
       7       -6.62543      0.0200000
       8       -5.15918      0.0200000
       9        2.46424        0.00000
      10        6.65455        0.00000
      11        7.08224        0.00000
      12        9.00009        0.00000
      13        9.96218        0.00000
      14        10.9821        0.00000
      15        11.7240        0.00000
      16        12.3065        0.00000
      17        13.9705        0.00000
      18        14.1901        0.00000

 85/100 kpoint (Cartesian) = 0.243525 0.233861 0.00000 (976 pws)
       1       -19.4837      0.0200000
       2       -18.3439      0.0200000
       3       -10.5978      0.0200000
       4       -9.13711      0.0200000
       5       -9.13440      0.0200000
       6       -7.36229      0.0200000
       7       -7.30980      0.0200000
       8       -5.98200      0.0200000
       9        3.61481        0.00000
      10        5.74871        0.00000
      11        7.72997        0.00000
      12        9.52516        0.00000
      13        9.72450        0.00000
      14        10.8546        0.00000
      15        10.9931        0.00000
      16        11.1444        0.00000
      17        14.5160        0.00000
      18        15.5123        0.00000

 86/100 kpoint (Cartesian) = 0.263819 0.222128 0.00000 (980 pws)
       1       -18.9680      0.0200000
       2       -18.9680      0.0200000
       3       -9.82877      0.0200000
       4       -9.82877      0.0200000
       5       -8.26272      0.0200000
       6       -8.26272      0.0200000
       7       -6.70487      0.0200000
       8       -6.70487      0.0200000
       9        4.72225        0.00000
      10        4.72225        0.00000
      11        8.72225        0.00000
      12        8.72225        0.00000
      13        10.2200        0.00000
      14        10.2200        0.00000
      15        10.8453        0.00000
      16        10.8453        0.00000
      17        15.1574        0.00000
      18        15.1574        0.00000

 87/100 kpoint (Cartesian) = 0.284113 0.210394 0.00000 (980 pws)
       1       -19.4837      0.0200000
       2       -18.3439      0.0200000
       3       -10.5978      0.0200000
       4       -9.13711      0.0200000
       5       -9.13440      0.0200000
       6       -7.36229      0.0200000
       7       -7.30980      0.0200000
       8       -5.98200      0.0200000
       9        3.61481        0.00000
      10        5.74871        0.00000
      11        7.72998        0.00000
      12        9.52516        0.00000
      13        9.72450        0.00000
      14        10.8546        0.00000
      15        10.9931        0.00000
      16        11.1444        0.00000
      17        14.5160        0.00000
      18        15.5123        0.00000

 88/100 kpoint (Cartesian) = 0.304407 0.198661 0.00000 (990 pws)
       1       -19.8874      0.0200000
       2       -17.6169      0.0200000
       3       -11.5278      0.0200000
       4       -9.79578      0.0200000
       5       -8.46122      0.0200000
       6       -7.78712      0.0200000
       7       -6.62543      0.0200000
       8       -5.15918      0.0200000
       9        2.46424        0.00000
      10        6.65455        0.00000
      11        7.08224        0.00000
      12        9.00009        0.00000
      13        9.96218        0.00000
      14        10.9821        0.00000
      15        11.7240        0.00000
      16        12.3065        0.00000
      17        13.9705        0.00000
      18        14.1901        0.00000

 89/100 kpoint (Cartesian) = 0.324700 0.186927 0.00000 (996 pws)
       1       -20.1768      0.0200000
       2       -16.7972      0.0200000
       3       -12.5802      0.0200000
       4       -10.2153      0.0200000
       5       -8.13123      0.0200000
       6       -7.80604      0.0200000
       7       -6.18800      0.0200000
       8       -4.27599      0.0200000
       9        1.32741        0.00000
      10        6.90266        0.00000
      11        7.38608        0.00000
      12        8.63391        0.00000
      13        9.85787        0.00000
      14        10.5047        0.00000
      15        12.8108        0.00000
      16        13.3681        0.00000
      17        13.5597        0.00000
      18        13.7689        0.00000

 90/100 kpoint (Cartesian) = 0.344994 0.175194 0.00000 (994 pws)
       1       -20.3507      0.0200000
       2       -15.9148      0.0200000
       3       -13.6358      0.0200000
       4       -10.4461      0.0200000
       5       -8.33883      0.0200000
       6       -7.23972      0.0200000
       7       -6.08086      0.0200000
       8       -3.44526      0.0200000
       9       0.334606        0.00000
      10        7.17625        0.00000
      11        7.87312        0.00000
      12        8.42305        0.00000
      13        9.60087        0.00000
      14        9.76174        0.00000
      15        13.0996        0.00000
      16        13.3012        0.00000
      17        13.6699        0.00000
      18        15.2772        0.00000

 91/100 kpoint (Cartesian) = 0.182644 0.315894 0.00000 (949 pws)
       1       -20.9290      0.0200000
       2       -15.7196      0.0200000
       3       -14.7577      0.0200000
       4       -9.03597      0.0200000
       5       -8.83804      0.0200000
       6       -5.38831      0.0200000
       7       -5.08749      0.0200000
       8       -3.68931      0.0200000
       9       0.227947        0.00000
      10        7.00832        0.00000
      11        7.09033        0.00000
      12        7.62318        0.00000
      13        7.73335        0.00000
      14        9.60979        0.00000
      15        11.7454        0.00000
      16        12.5297        0.00000
      17        14.4478        0.00000
      18        16.1763        0.00000

 92/100 kpoint (Cartesian) = 0.202938 0.304161 0.00000 (949 pws)
       1       -20.8711      0.0200000
       2       -16.3839      0.0200000
       3       -14.0095      0.0200000
       4       -8.96566      0.0200000
       5       -8.77752      0.0200000
       6       -5.62495      0.0200000
       7       -5.17594      0.0200000
       8       -4.06168      0.0200000
       9       0.693311        0.00000
      10        6.98183        0.00000
      11        7.12436        0.00000
      12        7.80007        0.00000
      13        7.90938        0.00000
      14        9.42187        0.00000
      15        11.8661        0.00000
      16        12.6055        0.00000
      17        13.8015        0.00000
      18        16.0173        0.00000

 93/100 kpoint (Cartesian) = 0.223231 0.292428 0.00000 (953 pws)
       1       -20.6972      0.0200000
       2       -17.2848      0.0200000
       3       -12.8607      0.0200000
       4       -8.75519      0.0200000
       5       -8.59690      0.0200000
       6       -6.18651      0.0200000
       7       -5.53580      0.0200000
       8       -4.86137      0.0200000
       9        1.76213        0.00000
      10        7.15390        0.00000
      11        7.22272        0.00000
      12        8.00954        0.00000
      13        8.41062        0.00000
      14        8.88183        0.00000
      15        12.2885        0.00000
      16        12.6040        0.00000
      17        12.8326        0.00000
      18        15.2141        0.00000

 94/100 kpoint (Cartesian) = 0.243525 0.280694 0.00000 (961 pws)
       1       -20.4070      0.0200000
       2       -18.1171      0.0200000
       3       -11.6295      0.0200000
       4       -8.40615      0.0200000
       5       -8.29918      0.0200000
       6       -6.97273      0.0200000
       7       -6.12327      0.0200000
       8       -5.74284      0.0200000
       9        3.06188        0.00000
      10        7.37283        0.00000
      11        7.50674        0.00000
      12        8.04614        0.00000
      13        8.37144        0.00000
      14        8.95525        0.00000
      15        11.4159        0.00000
      16        13.0904        0.00000
      17        13.2162        0.00000
      18        13.9246        0.00000

 95/100 kpoint (Cartesian) = 0.263819 0.268961 0.00000 (961 pws)
       1       -20.0014      0.0200000
       2       -18.8525      0.0200000
       3       -10.3681      0.0200000
       4       -7.96740      0.0200000
       5       -7.92169      0.0200000
       6       -7.88975      0.0200000
       7       -6.77492      0.0200000
       8       -6.57430      0.0200000
       9        4.42265        0.00000
      10        6.98118        0.00000
      11        7.54853        0.00000
      12        7.72573        0.00000
      13        8.86614        0.00000
      14        9.79867        0.00000
      15        10.3781        0.00000
      16        12.4557        0.00000
      17        13.7707        0.00000
      18        14.2137        0.00000

 96/100 kpoint (Cartesian) = 0.284113 0.257227 0.00000 (968 pws)
       1       -19.4822      0.0200000
       2       -19.4822      0.0200000
       3       -9.12520      0.0200000
       4       -9.12520      0.0200000
       5       -7.37691      0.0200000
       6       -7.37690      0.0200000
       7       -7.30757      0.0200000
       8       -7.30756      0.0200000
       9        5.75212        0.00000
      10        5.75212        0.00000
      11        7.69889        0.00000
      12        7.69889        0.00000
      13        9.52605        0.00000
      14        9.52605        0.00000
      15        11.0217        0.00000
      16        11.0217        0.00000
      17        14.5166        0.00000
      18        14.5166        0.00000

 97/100 kpoint (Cartesian) = 0.304407 0.245494 0.00000 (972 pws)
       1       -20.0014      0.0200000
       2       -18.8525      0.0200000
       3       -10.3681      0.0200000
       4       -7.96740      0.0200000
       5       -7.92169      0.0200000
       6       -7.88975      0.0200000
       7       -6.77492      0.0200000
       8       -6.57430      0.0200000
       9        4.42265        0.00000
      10        6.98118        0.00000
      11        7.54853        0.00000
      12        7.72573        0.00000
      13        8.86614        0.00000
      14        9.79868        0.00000
      15        10.3781        0.00000
      16        12.4557        0.00000
      17        13.7707        0.00000
      18        14.2137        0.00000

 98/100 kpoint (Cartesian) = 0.324700 0.233760 0.00000 (980 pws)
       1       -20.4070      0.0200000
       2       -18.1171      0.0200000
       3       -11.6295      0.0200000
       4       -8.40615      0.0200000
       5       -8.29918      0.0200000
       6       -6.97273      0.0200000
       7       -6.12327      0.0200000
       8       -5.74284      0.0200000
       9        3.06188        0.00000
      10        7.37283        0.00000
      11        7.50674        0.00000
      12        8.04614        0.00000
      13        8.37144        0.00000
      14        8.95525        0.00000
      15        11.4159        0.00000
      16        13.0904        0.00000
      17        13.2162        0.00000
      18        13.9246        0.00000

 99/100 kpoint (Cartesian) = 0.344994 0.222027 0.00000 (980 pws)
       1       -20.6972      0.0200000
       2       -17.2848      0.0200000
       3       -12.8607      0.0200000
       4       -8.75519      0.0200000
       5       -8.59690      0.0200000
       6       -6.18651      0.0200000
       7       -5.53580      0.0200000
       8       -4.86137      0.0200000
       9        1.76213        0.00000
      10        7.15390        0.00000
      11        7.22272        0.00000
      12        8.00954        0.00000
      13        8.41062        0.00000
      14        8.88183        0.00000
      15        12.2885        0.00000
      16        12.6040        0.00000
      17        12.8326        0.00000
      18        15.2141        0.00000

 100/100 kpoint (Cartesian) = 0.365288 0.210293 0.00000 (986 pws)
       1       -20.8711      0.0200000
       2       -16.3839      0.0200000
       3       -14.0095      0.0200000
       4       -8.96566      0.0200000
       5       -8.77752      0.0200000
       6       -5.62495      0.0200000
       7       -5.17594      0.0200000
       8       -4.06168      0.0200000
       9       0.693311        0.00000
      10        6.98183        0.00000
      11        7.12436        0.00000
      12        7.80007        0.00000
      13        7.90938        0.00000
      14        9.42187        0.00000
      15        11.8661        0.00000
      16        12.6055        0.00000
      17        13.8015        0.00000
      18        16.0173        0.00000

 EFERMI = -1.498876124633771 eV
 OUT.ABACUS/ final etot is -619.4312504408744 eV


 --------------------------------------------
 !FINAL_ETOT_IS -619.4312504408744 eV
 --------------------------------------------






  |CLASS_NAME---------|NAME---------------|TIME(Sec)-----|CALLS----|AVG------|PER%-------
                                      total         7.2242        11      0.66   1.0e+02%
               Run_lcao           lcao_line         7.2216         1       7.2    1.e+02%
            ORB_control      set_orb_tables         1.0299         1       1.0       14.%
         ORB_gen_tables          gen_tables         1.0299         1       1.0       14.%
          ORB_table_phi          init_Table        0.68733         1      0.69       9.5%
          ORB_table_phi      cal_ST_Phi12_R        0.68471        70    0.0098       9.5%
         ORB_table_beta     init_Table_Beta        0.16767         1      0.17       2.3%
         ORB_table_beta       VNL_PhiBeta_R        0.16679        26    0.0064       2.3%
                    FFT               FFT3D        0.13269        91    0.0015       1.8%
              Potential            v_of_rho        0.15886         7     0.023       2.2%
          XC_Functional                v_xc        0.14568         7     0.021       2.0%
              LOOP_ions            opt_ions         5.9976         1       6.0       83.%
              LOOP_elec     solve_elec_stru         5.9939         1       6.0       83.%
              LOOP_elec              solver         5.9757         1       6.0       83.%
               ELEC_scf                 scf         5.9757         1       6.0       83.%
          ELEC_cbands_k           cal_bands         4.2183         6      0.70       58.%
             Efficience              each_k         4.0702       600    0.0068       56.%
             Efficience                 H_k         1.7783       600    0.0030       25.%
            LCAO_Hamilt        calculate_Hk         1.7767       600    0.0030       25.%
                 Gint_k        folding_vl_k         1.6904       600    0.0028       23.%
                 Gint_k              Distri         1.6892       600    0.0028       23.%
             Efficience             diago_k         2.2914       600    0.0038       32.%
      Diago_LCAO_Matrix          elpa_solve         2.2473       600    0.0037       31.%
      Local_Orbital_Cha           sum_bands         1.1710         6      0.20       16.%
 ----------------------------------------------------------------------------------------

 CLASS_NAME---------|NAME---------------|MEMORY(MB)--------
                                         252.2
        ORB_table_phi               Jl(x)          107.2
         Charge_Pulay                Rrho          1.172
         Charge_Pulay               dRrho          1.025
         Charge_Pulay                drho          1.025
 ----------------------------------------------------------

 Start  Time  : Mon Apr 11 22:19:05 2022
 Finish Time  : Mon Apr 11 22:19:12 2022
 Total  Time  : 0 h 0 mins 7 secs 
