  51  51   0   0
  0.5138078E+02  0.1230000E-08  0.1230000E-08  0.2000000E-08  0.5000000E-15
  1.000000000000000E-004
  CAR 
                                         
      5.37337572    -33.50747743  301     -3.01725165      1.00000000
    -33.507  0.0000E+00  0.0000E+00
    -33.378  0.0000E+00  0.0000E+00
    -33.248  0.0000E+00  0.0000E+00
    -33.119  0.0000E+00  0.0000E+00
    -32.989  0.0000E+00  0.0000E+00
    -32.859  0.0000E+00  0.0000E+00
    -32.730  0.0000E+00  0.0000E+00
    -32.600  0.0000E+00  0.0000E+00
    -32.471  0.0000E+00  0.0000E+00
    -32.341  0.0000E+00  0.0000E+00
    -32.211  0.0000E+00  0.0000E+00
    -32.082  0.0000E+00  0.0000E+00
    -31.952  0.1525E-07  0.1976E-08
    -31.823  0.1512E+00  0.1959E-01
    -31.693  0.1387E+02  0.1817E+01
    -31.563  0.1412E+01  0.2000E+01
    -31.434  0.4484E-05  0.2000E+01
    -31.304  0.0000E+00  0.2000E+01
    -31.175  0.0000E+00  0.2000E+01
    -31.045  0.0000E+00  0.2000E+01
    -30.915  0.0000E+00  0.2000E+01
    -30.786  0.0000E+00  0.2000E+01
    -30.656  0.0000E+00  0.2000E+01
    -30.527  0.0000E+00  0.2000E+01
    -30.397  0.0000E+00  0.2000E+01
    -30.267  0.0000E+00  0.2000E+01
    -30.138  0.0000E+00  0.2000E+01
    -30.008  0.0000E+00  0.2000E+01
    -29.879  0.0000E+00  0.2000E+01
    -29.749  0.0000E+00  0.2000E+01
    -29.619  0.0000E+00  0.2000E+01
    -29.490  0.0000E+00  0.2000E+01
    -29.360  0.0000E+00  0.2000E+01
    -29.231  0.0000E+00  0.2000E+01
    -29.101  0.0000E+00  0.2000E+01
    -28.971  0.0000E+00  0.2000E+01
    -28.842  0.0000E+00  0.2000E+01
    -28.712  0.0000E+00  0.2000E+01
    -28.583  0.0000E+00  0.2000E+01
    -28.453  0.0000E+00  0.2000E+01
    -28.323  0.0000E+00  0.2000E+01
    -28.194  0.0000E+00  0.2000E+01
    -28.064  0.0000E+00  0.2000E+01
    -27.935  0.0000E+00  0.2000E+01
    -27.805  0.0000E+00  0.2000E+01
    -27.675  0.0000E+00  0.2000E+01
    -27.546  0.0000E+00  0.2000E+01
    -27.416  0.0000E+00  0.2000E+01
    -27.287  0.0000E+00  0.2000E+01
    -27.157  0.0000E+00  0.2000E+01
    -27.027  0.0000E+00  0.2000E+01
    -26.898  0.0000E+00  0.2000E+01
    -26.768  0.0000E+00  0.2000E+01
    -26.639  0.0000E+00  0.2000E+01
    -26.509  0.0000E+00  0.2000E+01
    -26.379  0.0000E+00  0.2000E+01
    -26.250  0.0000E+00  0.2000E+01
    -26.120  0.0000E+00  0.2000E+01
    -25.991  0.0000E+00  0.2000E+01
    -25.861  0.0000E+00  0.2000E+01
    -25.731  0.0000E+00  0.2000E+01
    -25.602  0.0000E+00  0.2000E+01
    -25.472  0.0000E+00  0.2000E+01
    -25.342  0.0000E+00  0.2000E+01
    -25.213  0.0000E+00  0.2000E+01
    -25.083  0.0000E+00  0.2000E+01
    -24.954  0.0000E+00  0.2000E+01
    -24.824  0.0000E+00  0.2000E+01
    -24.694  0.0000E+00  0.2000E+01
    -24.565  0.0000E+00  0.2000E+01
    -24.435  0.0000E+00  0.2000E+01
    -24.306  0.0000E+00  0.2000E+01
    -24.176  0.0000E+00  0.2000E+01
    -24.046  0.0000E+00  0.2000E+01
    -23.917  0.0000E+00  0.2000E+01
    -23.787  0.0000E+00  0.2000E+01
    -23.658  0.0000E+00  0.2000E+01
    -23.528  0.0000E+00  0.2000E+01
    -23.398  0.0000E+00  0.2000E+01
    -23.269  0.0000E+00  0.2000E+01
    -23.139  0.0000E+00  0.2000E+01
    -23.010  0.0000E+00  0.2000E+01
    -22.880  0.0000E+00  0.2000E+01
    -22.750  0.0000E+00  0.2000E+01
    -22.621  0.0000E+00  0.2000E+01
    -22.491  0.4055E-09  0.2000E+01
    -22.362  0.8925E-02  0.2001E+01
    -22.232  0.2624E+01  0.2341E+01
    -22.102  0.1023E+02  0.3666E+01
    -21.973  0.5457E+01  0.4374E+01
    -21.843  0.8871E+01  0.5524E+01
    -21.714  0.6083E+01  0.6312E+01
    -21.584  0.9487E+01  0.7541E+01
    -21.454  0.8637E+01  0.8661E+01
    -21.325  0.1021E+02  0.9983E+01
    -21.195  0.1361E+01  0.1016E+02
    -21.066  0.7558E+01  0.1114E+02
    -20.936  0.9889E+01  0.1242E+02
    -20.806  0.1379E+02  0.1421E+02
    -20.677  0.9619E+01  0.1545E+02
    -20.547  0.7839E+00  0.1556E+02
    -20.418  0.7021E+01  0.1647E+02
    -20.288  0.9868E+01  0.1774E+02
    -20.158  0.1062E+02  0.1912E+02
    -20.029  0.1021E+02  0.2044E+02
    -19.899  0.9078E+00  0.2056E+02
    -19.770  0.9841E+01  0.2184E+02
    -19.640  0.1286E+02  0.2350E+02
    -19.510  0.7957E+01  0.2454E+02
    -19.381  0.1652E+01  0.2475E+02
    -19.251  0.1375E+02  0.2653E+02
    -19.122  0.8322E+01  0.2761E+02
    -18.992  0.9635E+01  0.2886E+02
    -18.862  0.3718E+01  0.2934E+02
    -18.733  0.3560E+01  0.2980E+02
    -18.603  0.1161E+02  0.3131E+02
    -18.474  0.1046E+02  0.3266E+02
    -18.344  0.1293E+02  0.3434E+02
    -18.214  0.4296E+01  0.3489E+02
    -18.085  0.1146E+02  0.3638E+02
    -17.955  0.9914E+01  0.3767E+02
    -17.826  0.5060E+01  0.3832E+02
    -17.696  0.2691E+01  0.3867E+02
    -17.566  0.1091E+02  0.4008E+02
    -17.437  0.1264E+02  0.4172E+02
    -17.307  0.7177E+01  0.4265E+02
    -17.178  0.1823E+02  0.4501E+02
    -17.048  0.6594E+01  0.4587E+02
    -16.918  0.3020E+01  0.4626E+02
    -16.789  0.9603E+01  0.4751E+02
    -16.659  0.5458E+01  0.4821E+02
    -16.530  0.7663E+01  0.4921E+02
    -16.400  0.8877E+01  0.5036E+02
    -16.270  0.2966E+01  0.5074E+02
    -16.141  0.9818E+01  0.5201E+02
    -16.011  0.6053E+01  0.5280E+02
    -15.881  0.1277E+02  0.5445E+02
    -15.752  0.1172E+02  0.5597E+02
    -15.622  0.2192E+01  0.5626E+02
    -15.493  0.4218E+01  0.5680E+02
    -15.363  0.2728E+01  0.5716E+02
    -15.233  0.1017E+02  0.5847E+02
    -15.104  0.2197E+02  0.6132E+02
    -14.974  0.5117E+01  0.6198E+02
    -14.845  0.1120E+02  0.6344E+02
    -14.715  0.1107E+02  0.6487E+02
    -14.585  0.6550E+01  0.6572E+02
    -14.456  0.1318E+02  0.6743E+02
    -14.326  0.7851E+01  0.6844E+02
    -14.197  0.4292E+00  0.6850E+02
    -14.067  0.4664E+01  0.6910E+02
    -13.937  0.7128E+01  0.7003E+02
    -13.808  0.1479E+02  0.7195E+02
    -13.678  0.2240E+02  0.7485E+02
    -13.549  0.2245E+01  0.7514E+02
    -13.419  0.3155E+01  0.7555E+02
    -13.289  0.9718E-01  0.7556E+02
    -13.160  0.8914E+01  0.7672E+02
    -13.030  0.1363E+02  0.7848E+02
    -12.901  0.1894E+02  0.8094E+02
    -12.771  0.6481E+01  0.8178E+02
    -12.641  0.6267E+00  0.8186E+02
    -12.512  0.1882E+02  0.8430E+02
    -12.382  0.1059E+02  0.8567E+02
    -12.253  0.6026E+01  0.8645E+02
    -12.123  0.1940E+01  0.8670E+02
    -11.993  0.1272E+02  0.8835E+02
    -11.864  0.2903E+01  0.8873E+02
    -11.734  0.1068E+02  0.9011E+02
    -11.605  0.2085E+02  0.9281E+02
    -11.475  0.1271E+02  0.9446E+02
    -11.345  0.9277E+01  0.9566E+02
    -11.216  0.9385E+01  0.9688E+02
    -11.086  0.8746E+01  0.9801E+02
    -10.957  0.3579E+01  0.9848E+02
    -10.827  0.2151E+02  0.1013E+03
    -10.697  0.7395E+01  0.1022E+03
    -10.568  0.9133E+01  0.1034E+03
    -10.438  0.1550E+02  0.1054E+03
    -10.309  0.6486E+01  0.1063E+03
    -10.179  0.3226E+02  0.1104E+03
    -10.049  0.2249E+02  0.1133E+03
     -9.920  0.1159E+02  0.1149E+03
     -9.790  0.2107E+02  0.1176E+03
     -9.661  0.1592E+02  0.1196E+03
     -9.531  0.3211E+02  0.1238E+03
     -9.401  0.1583E+02  0.1259E+03
     -9.272  0.3013E+02  0.1298E+03
     -9.142  0.2209E+02  0.1326E+03
     -9.013  0.2886E+02  0.1364E+03
     -8.883  0.2183E+02  0.1392E+03
     -8.753  0.1288E+02  0.1409E+03
     -8.624  0.2753E+02  0.1444E+03
     -8.494  0.1508E+02  0.1464E+03
     -8.365  0.1660E+02  0.1485E+03
     -8.235  0.1473E+02  0.1504E+03
     -8.105  0.1832E+02  0.1528E+03
     -7.976  0.2754E+02  0.1564E+03
     -7.846  0.1615E+02  0.1585E+03
     -7.717  0.1507E+02  0.1604E+03
     -7.587  0.8492E+01  0.1615E+03
     -7.457  0.1875E+01  0.1618E+03
     -7.328  0.1828E+02  0.1642E+03
     -7.198  0.3219E+02  0.1683E+03
     -7.068  0.1614E+02  0.1704E+03
     -6.939  0.3847E+01  0.1709E+03
     -6.809  0.2005E+02  0.1735E+03
     -6.680  0.1185E+02  0.1750E+03
     -6.550  0.1666E+02  0.1772E+03
     -6.420  0.7546E+01  0.1782E+03
     -6.291  0.1163E+02  0.1797E+03
     -6.161  0.1543E+02  0.1817E+03
     -6.032  0.1479E+02  0.1836E+03
     -5.902  0.1698E+02  0.1858E+03
     -5.772  0.1006E+02  0.1871E+03
     -5.643  0.1340E+02  0.1889E+03
     -5.513  0.5606E+01  0.1896E+03
     -5.384  0.6622E+01  0.1904E+03
     -5.254  0.1017E+02  0.1918E+03
     -5.124  0.7544E+01  0.1927E+03
     -4.995  0.1487E+02  0.1947E+03
     -4.865  0.2351E+02  0.1977E+03
     -4.736  0.3267E+01  0.1981E+03
     -4.606  0.7262E+00  0.1982E+03
     -4.476  0.1376E-04  0.1982E+03
     -4.347  0.2161E+00  0.1983E+03
     -4.217  0.1500E+02  0.2002E+03
     -4.088  0.1039E+02  0.2015E+03
     -3.958  0.1099E+00  0.2016E+03
     -3.828  0.1177E-01  0.2016E+03
     -3.699  0.2842E+01  0.2019E+03
     -3.569  0.5787E+00  0.2020E+03
     -3.440  0.2417E+01  0.2023E+03
     -3.310  0.9664E+01  0.2036E+03
     -3.180  0.9040E+01  0.2047E+03
     -3.051  0.9664E+01  0.2060E+03
     -2.921  0.8428E+00  0.2061E+03
     -2.792  0.7502E+01  0.2071E+03
     -2.662  0.3734E+01  0.2076E+03
     -2.532  0.3738E-03  0.2076E+03
     -2.403  0.1134E+01  0.2077E+03
     -2.273  0.2579E+01  0.2080E+03
     -2.144  0.3107E+01  0.2084E+03
     -2.014  0.3843E-01  0.2084E+03
     -1.884  0.4624E-08  0.2084E+03
     -1.755  0.1937E-04  0.2084E+03
     -1.625  0.1739E+01  0.2087E+03
     -1.496  0.9488E+01  0.2099E+03
     -1.366  0.1394E+02  0.2117E+03
     -1.236  0.5505E+00  0.2118E+03
     -1.107  0.1846E-02  0.2118E+03
     -0.977  0.2548E+01  0.2121E+03
     -0.848  0.1602E+02  0.2142E+03
     -0.718  0.2028E+02  0.2168E+03
     -0.588  0.1633E+02  0.2189E+03
     -0.459  0.4776E+01  0.2195E+03
     -0.329  0.1687E+00  0.2196E+03
     -0.200  0.5584E+01  0.2203E+03
     -0.070  0.1131E+02  0.2218E+03
      0.060  0.1010E+02  0.2231E+03
      0.189  0.6384E+00  0.2232E+03
      0.319  0.1747E+02  0.2254E+03
      0.448  0.6850E+01  0.2263E+03
      0.578  0.3141E+01  0.2267E+03
      0.708  0.1136E+02  0.2282E+03
      0.837  0.1686E+02  0.2304E+03
      0.967  0.5972E+01  0.2311E+03
      1.096  0.1086E+02  0.2325E+03
      1.226  0.1553E+02  0.2346E+03
      1.356  0.7637E+01  0.2356E+03
      1.485  0.1467E+02  0.2375E+03
      1.615  0.2442E+02  0.2406E+03
      1.744  0.1525E+02  0.2426E+03
      1.874  0.2754E+02  0.2462E+03
      2.004  0.1261E+02  0.2478E+03
      2.133  0.1791E+02  0.2501E+03
      2.263  0.2613E+02  0.2535E+03
      2.393  0.3441E+02  0.2580E+03
      2.522  0.1541E+02  0.2600E+03
      2.652  0.2545E+01  0.2603E+03
      2.781  0.6288E+01  0.2611E+03
      2.911  0.5198E+01  0.2618E+03
      3.041  0.7502E+01  0.2628E+03
      3.170  0.2785E+01  0.2631E+03
      3.300  0.2990E+01  0.2635E+03
      3.429  0.4181E+00  0.2636E+03
      3.559  0.3130E+00  0.2636E+03
      3.689  0.3083E+01  0.2640E+03
      3.818  0.3371E-01  0.2640E+03
      3.948  0.3416E-08  0.2640E+03
      4.077  0.0000E+00  0.2640E+03
      4.207  0.0000E+00  0.2640E+03
      4.337  0.0000E+00  0.2640E+03
      4.466  0.0000E+00  0.2640E+03
      4.596  0.0000E+00  0.2640E+03
      4.725  0.0000E+00  0.2640E+03
      4.855  0.0000E+00  0.2640E+03
      4.985  0.0000E+00  0.2640E+03
      5.114  0.0000E+00  0.2640E+03
      5.244  0.0000E+00  0.2640E+03
      5.373  0.0000E+00  0.2640E+03
