 running on   48 total cores
 distrk:  each k-point on   48 cores,    1 groups
 distr:  one band on    8 cores,    6 groups
 using from now: INCAR     
 vasp.5.4.4.18Apr17-6-g9f103f2a35 (build Aug 13 2022 23:40:43) complex          
  
 POSCAR found type information on POSCAR  C  O 
 POSCAR found :  2 types and      51 ions
 scaLAPACK will be used

 ----------------------------------------------------------------------------- 
|                                                                             |
|  ADVICE TO THIS USER RUNNING 'VASP/VAMP'   (HEAR YOUR MASTER'S VOICE ...):  |
|                                                                             |
|      You have a (more or less) 'large supercell' and for larger cells       |
|      it might be more efficient to use real space projection opertators     |
|      So try LREAL= Auto  in the INCAR   file.                               |
|      Mind:          For very  accurate calculation you might also keep the  |
|      reciprocal projection scheme          (i.e. LREAL=.FALSE.)             |
|                                                                             |
 ----------------------------------------------------------------------------- 

 LDA part: xc-table for Pade appr. of Perdew
 POSCAR found type information on POSCAR  C  O 
 POSCAR found :  2 types and      51 ions
 found WAVECAR, reading the header
  number of k-points has changed, file:     3 present:     4
  trying to continue reading WAVECAR, but it might fail
 POSCAR, INCAR and KPOINTS ok, starting setup
 FFT: planning ...
 reading WAVECAR
 the WAVECAR file was read successfully
 charge-density read from file: 1.00000000000000                        
 entering main loop
       N       E                     dE             d eps       ncg     rms          rms(c)
DAV:   1    -0.454133808726E+03   -0.45413E+03   -0.56915E+01  1080   0.799E+00    0.124E-01
RMM:   2    -0.454327889815E+03   -0.19408E+00   -0.19429E+00  1131   0.193E+00    0.634E-02
RMM:   3    -0.454339289050E+03   -0.11399E-01   -0.12723E-01  1256   0.386E-01    0.448E-02
RMM:   4    -0.454339995037E+03   -0.70599E-03   -0.73789E-03  1006   0.104E-01    0.341E-02
RMM:   5    -0.454340052676E+03   -0.57639E-04   -0.59631E-04  1125   0.349E-02    0.659E-03
RMM:   6    -0.454340058083E+03   -0.54069E-05   -0.43554E-05   822   0.100E-02
   1 F= -.45434006E+03 E0= -.45434000E+03  d E =-.114192E-03
