 vasp.5.4.4.18Apr17-6-g9f103f2a35 (build Aug 13 2022 23:40:43) complex          
  
 executed on             LinuxIFC date 2024.11.10  04:24:46
 running on   48 total cores
 distrk:  each k-point on   48 cores,    1 groups
 distr:  one band on NCORES_PER_BAND=   8 cores,    6 groups


--------------------------------------------------------------------------------------------------------


 INCAR:
 POTCAR:    PAW_PBE C 08Apr2002                   
 POTCAR:    PAW_PBE O 08Apr2002                   
 POTCAR:    PAW_PBE C 08Apr2002                   
   VRHFIN =C: s2p2                                                              
   LEXCH  = PE                                                                  
   EATOM  =   147.1560 eV,   10.8157 Ry                                         
                                                                                
   TITEL  = PAW_PBE C 08Apr2002                                                 
   LULTRA =        F    use ultrasoft PP ?                                      
   IUNSCR =        1    unscreen: 0-lin 1-nonlin 2-no                           
   RPACOR =    1.200    partial core radius                                     
   POMASS =   12.011; ZVAL   =    4.000    mass and valenz                      
   RCORE  =    1.500    outmost cutoff radius                                   
   RWIGS  =    1.630; RWIGS  =    0.863    wigner-seitz radius (au A)           
   ENMAX  =  400.000; ENMIN  =  300.000 eV                                      
   ICORE  =        2    local potential                                         
   LCOR   =        T    correct aug charges                                     
   LPAW   =        T    paw PP                                                  
   EAUG   =  644.873                                                            
   DEXC   =    0.000                                                            
   RMAX   =    1.529    core radius for proj-oper                               
   RAUG   =    1.300    factor for augmentation sphere                          
   RDEP   =    1.501    radius for radial grids                                 
   RDEPT  =    1.300    core radius for aug-charge                              
                                                                                
   Atomic configuration                                                         
    4 entries                                                                   
     n  l   j            E        occ.                                          
     1  0  0.50      -273.3789   2.0000                                         
     2  0  0.50       -13.7508   2.0000                                         
     2  1  0.50        -5.2854   2.0000                                         
     3  2  1.50        -5.4423   0.0000                                         
   Description                                                                  
     l       E           TYP  RCUT    TYP  RCUT                                 
     0    -13.7508458     23  1.200                                             
     0     -8.2022199     23  1.200                                             
     1     -5.2854383     23  1.500                                             
     1     34.0145650     23  1.500                                             
     2     -5.4423304      7  1.500                                             
  local pseudopotential read in
  partial core-charges read in
  partial kinetic energy density read in
  atomic valenz-charges read in
  non local Contribution for L=           0  read in
    real space projection operators read in
  non local Contribution for L=           0  read in
    real space projection operators read in
  non local Contribution for L=           1  read in
    real space projection operators read in
  non local Contribution for L=           1  read in
    real space projection operators read in
    PAW grid and wavefunctions read in
 
   number of l-projection  operators is LMAX  =           4
   number of lm-projection operators is LMMAX =           8
 
 POTCAR:    PAW_PBE O 08Apr2002                   
   VRHFIN =O: s2p4                                                              
   LEXCH  = PE                                                                  
   EATOM  =   432.3788 eV,   31.7789 Ry                                         
                                                                                
   TITEL  = PAW_PBE O 08Apr2002                                                 
   LULTRA =        F    use ultrasoft PP ?                                      
   IUNSCR =        1    unscreen: 0-lin 1-nonlin 2-no                           
   RPACOR =    1.200    partial core radius                                     
   POMASS =   16.000; ZVAL   =    6.000    mass and valenz                      
   RCORE  =    1.520    outmost cutoff radius                                   
   RWIGS  =    1.550; RWIGS  =    0.820    wigner-seitz radius (au A)           
   ENMAX  =  400.000; ENMIN  =  300.000 eV                                      
   ICORE  =        2    local potential                                         
   LCOR   =        T    correct aug charges                                     
   LPAW   =        T    paw PP                                                  
   EAUG   =  605.392                                                            
   DEXC   =    0.000                                                            
   RMAX   =    1.553    core radius for proj-oper                               
   RAUG   =    1.300    factor for augmentation sphere                          
   RDEP   =    1.550    radius for radial grids                                 
   RDEPT  =    1.329    core radius for aug-charge                              
                                                                                
   Atomic configuration                                                         
    4 entries                                                                   
     n  l   j            E        occ.                                          
     1  0  0.50      -514.6923   2.0000                                         
     2  0  0.50       -23.9615   2.0000                                         
     2  1  0.50        -9.0305   4.0000                                         
     3  2  1.50        -9.5241   0.0000                                         
   Description                                                                  
     l       E           TYP  RCUT    TYP  RCUT                                 
     0    -23.9615318     23  1.200                                             
     0     -9.5240782     23  1.200                                             
     1     -9.0304911     23  1.520                                             
     1      8.1634956     23  1.520                                             
     2     -9.5240782      7  1.500                                             
  local pseudopotential read in
  partial core-charges read in
  partial kinetic energy density read in
  kinetic energy density of atom read in
  atomic valenz-charges read in
  non local Contribution for L=           0  read in
    real space projection operators read in
  non local Contribution for L=           0  read in
    real space projection operators read in
  non local Contribution for L=           1  read in
    real space projection operators read in
  non local Contribution for L=           1  read in
    real space projection operators read in
    PAW grid and wavefunctions read in
 
   number of l-projection  operators is LMAX  =           4
   number of lm-projection operators is LMMAX =           8
 

 ----------------------------------------------------------------------------- 
|                                                                             |
|  ADVICE TO THIS USER RUNNING 'VASP/VAMP'   (HEAR YOUR MASTER'S VOICE ...):  |
|                                                                             |
|      You have a (more or less) 'large supercell' and for larger cells       |
|      it might be more efficient to use real space projection opertators     |
|      So try LREAL= Auto  in the INCAR   file.                               |
|      Mind:          For very  accurate calculation you might also keep the  |
|      reciprocal projection scheme          (i.e. LREAL=.FALSE.)             |
|                                                                             |
 ----------------------------------------------------------------------------- 

  PAW_PBE C 08Apr2002                   :
 energy of atom  1       EATOM= -147.1560
 kinetic energy error for atom=    0.0288 (will be added to EATOM!!)
  PAW_PBE O 08Apr2002                   :
 energy of atom  2       EATOM= -432.3788
 kinetic energy error for atom=    0.1156 (will be added to EATOM!!)
 
 
 POSCAR: generated by phonopy                    
  positions in direct lattice
  No initial velocities read in
 exchange correlation table for  LEXCH =        8
   RHO(1)=    0.500       N(1)  =     2000
   RHO(2)=  100.500       N(2)  =     4000

 VTST: version 3.2, (02/03/18)

 CHAIN: initializing optimizer
 
 OPT: Using VASP Dynamics algorithm
 CHAIN: Read ICHAIN            0
 
 POSCAR: generated by phonopy                    
  positions in direct lattice
  No initial velocities read in
 


--------------------------------------------------------------------------------------------------------


 ion  position               nearest neighbor table
   1  0.000  0.000  0.418-  26 1.42  30 1.42  46 1.42
   2  0.200  0.000  0.418-  27 1.42  26 1.42  47 1.42
   3  0.400  0.000  0.418-  28 1.42  27 1.42  48 1.42
   4  0.600  0.000  0.418-  29 1.42  28 1.42  49 1.42
   5  0.800  0.000  0.418-  30 1.42  29 1.42  50 1.42
   6  0.000  0.200  0.418-  31 1.42  35 1.42  26 1.42
   7  0.200  0.200  0.418-  32 1.42  31 1.42  27 1.42
   8  0.400  0.200  0.418-  33 1.42  32 1.42  28 1.42
   9  0.600  0.200  0.418-  34 1.42  33 1.42  29 1.42
  10  0.800  0.200  0.418-  35 1.42  34 1.42  30 1.42
  11  0.000  0.400  0.418-  36 1.42  31 1.42  40 1.42
  12  0.200  0.400  0.418-  37 1.42  36 1.42  32 1.42
  13  0.400  0.400  0.418-  51 1.00  38 1.42  37 1.42  33 1.42
  14  0.600  0.400  0.418-  39 1.42  38 1.42  34 1.42
  15  0.800  0.400  0.418-  39 1.42  35 1.42  40 1.42
  16  0.000  0.600  0.418-  41 1.42  45 1.42  36 1.42
  17  0.200  0.600  0.418-  42 1.42  41 1.42  37 1.42
  18  0.400  0.600  0.418-  43 1.42  42 1.42  38 1.42
  19  0.600  0.600  0.418-  44 1.42  43 1.42  39 1.42
  20  0.800  0.600  0.418-  45 1.42  44 1.42  40 1.42
  21  0.000  0.800  0.418-  46 1.42  50 1.42  41 1.42
  22  0.200  0.800  0.418-  47 1.42  46 1.42  42 1.42
  23  0.400  0.800  0.418-  48 1.42  47 1.42  43 1.42
  24  0.600  0.800  0.418-  49 1.42  48 1.42  44 1.42
  25  0.800  0.800  0.418-  50 1.42  49 1.42  45 1.42
  26  0.067  0.067  0.418-   1 1.42   2 1.42   6 1.42
  27  0.267  0.067  0.418-   2 1.42   3 1.42   7 1.42
  28  0.467  0.067  0.418-   3 1.42   4 1.42   8 1.42
  29  0.667  0.067  0.418-   4 1.42   5 1.42   9 1.42
  30  0.867  0.067  0.418-   5 1.42   1 1.42  10 1.42
  31  0.067  0.267  0.418-   6 1.42   7 1.42  11 1.42
  32  0.267  0.267  0.418-   7 1.42   8 1.42  12 1.42
  33  0.467  0.267  0.418-   8 1.42   9 1.42  13 1.42  51 1.74
  34  0.667  0.267  0.418-   9 1.42  10 1.42  14 1.42
  35  0.867  0.267  0.418-  10 1.42   6 1.42  15 1.42
  36  0.067  0.467  0.418-  11 1.42  12 1.42  16 1.42
  37  0.267  0.467  0.418-  12 1.42  13 1.42  17 1.42  51 1.74
  38  0.467  0.467  0.418-  13 1.42  14 1.42  18 1.42  51 1.74
  39  0.667  0.467  0.418-  14 1.42  15 1.42  19 1.42
  40  0.867  0.467  0.418-  15 1.42  11 1.42  20 1.42
  41  0.067  0.667  0.418-  16 1.42  17 1.42  21 1.42
  42  0.267  0.667  0.418-  17 1.42  18 1.42  22 1.42
  43  0.467  0.667  0.418-  18 1.42  19 1.42  23 1.42
  44  0.667  0.667  0.418-  19 1.42  20 1.42  24 1.42
  45  0.867  0.667  0.418-  20 1.42  16 1.42  25 1.42
  46  0.067  0.867  0.418-  21 1.42  22 1.42   1 1.42
  47  0.267  0.867  0.418-  22 1.42  23 1.42   2 1.42
  48  0.467  0.867  0.418-  23 1.42  24 1.42   3 1.42
  49  0.667  0.867  0.418-  24 1.42  25 1.42   4 1.42
  50  0.867  0.867  0.418-  25 1.42  21 1.42   5 1.42
  51  0.400  0.400  0.468-  13 1.00  38 1.74  37 1.74  33 1.74
 
  LATTYP: Found a hexagonal cell.
 ALAT       =    12.2999994816
 C/A-ratio  =     1.6260163287
  
  Lattice vectors:
  
 A1 = (   6.1499993860, -10.6521122225,   0.0000000000)
 A2 = ( -12.3000001905,   0.0000000000,   0.0000000000)
 A3 = (   0.0000000000,   0.0000000000, -20.0000000000)


Analysis of symmetry for initial positions (statically):
=====================================================================
 Subroutine PRICEL returns:
 Original cell was already a primitive cell.
 

 Routine SETGRP: Setting up the symmetry group for a 
 hexagonal supercell.


 Subroutine GETGRP returns: Found  2 space group operations
 (whereof  1 operations were pure point group operations)
 out of a pool of 24 trial point group operations.


The static configuration has the point symmetry C_1 .
 The point group associated with its full space group is C_1h.


Analysis of symmetry for dynamics (positions and initial velocities):
=====================================================================
 Subroutine PRICEL returns:
 Original cell was already a primitive cell.
 

 Routine SETGRP: Setting up the symmetry group for a 
 hexagonal supercell.


 Subroutine GETGRP returns: Found  2 space group operations
 (whereof  1 operations were pure point group operations)
 out of a pool of 24 trial point group operations.


The dynamic configuration has the point symmetry C_1 .
 The point group associated with its full space group is C_1h.


 Subroutine INISYM returns: Found  2 space group operations
 (whereof  1 operations are pure point group operations),
 and found     1 'primitive' translations

 
 
 KPOINTS: K-POINTS                                

Automatic generation of k-mesh.
Space group operators:
 irot       det(A)        alpha          n_x          n_y          n_z        tau_x        tau_y        tau_z
    1     1.000000     0.000000     1.000000     0.000000     0.000000     0.000000     0.000000     0.000000
    2    -1.000000   180.000000     1.000000    -0.000000     0.000000    -0.800000     0.000000     0.000000
 
 Subroutine IBZKPT returns following result:
 ===========================================
 
 Found      4 irreducible k-points:
 
 Following reciprocal coordinates:
            Coordinates               Weight
  0.000000  0.000000  0.000000      1.000000
  0.333333  0.000000  0.000000      4.000000
  0.000000  0.333333  0.000000      2.000000
 -0.333333  0.333333  0.000000      2.000000
 
 Following cartesian coordinates:
            Coordinates               Weight
  0.000000  0.000000  0.000000      1.000000
  0.027100 -0.015646  0.000000      4.000000
  0.000000  0.031293  0.000000      2.000000
 -0.027100  0.046939  0.000000      2.000000
 


--------------------------------------------------------------------------------------------------------




 Dimension of arrays:
   k-points           NKPTS =      4   k-points in BZ     NKDIM =      4   number of bands    NBANDS=    132
   number of dos      NEDOS =    301   number of ions     NIONS =     51
   non local maximal  LDIM  =      4   non local SUM 2l+1 LMDIM =      8
   total plane-waves  NPLWV = 896000
   max r-space proj   IRMAX =      1   max aug-charges    IRDMAX=  35685
   dimension x,y,z NGX =    80 NGY =   80 NGZ =  140
   dimension x,y,z NGXF=   160 NGYF=  160 NGZF=  280
   support grid    NGXF=   320 NGYF=  320 NGZF=  560
   ions per type =              50   1
   NGX,Y,Z   is equivalent  to a cutoff of  10.81, 10.81, 11.64 a.u.
   NGXF,Y,Z  is equivalent  to a cutoff of  21.63, 21.63, 23.27 a.u.

 SYSTEM =                                          
 POSCAR =  generated by phonopy                    

 Startparameter for this run:
   NWRITE =      2    write-flag & timer
   PREC   = accura    normal or accurate (medium, high low for compatibility)
   ISTART =      1    job   : 0-new  1-cont  2-samecut
   ICHARG =      1    charge: 1-file 2-atom 10-const
   ISPIN  =      1    spin polarized calculation?
   LNONCOLLINEAR =      F non collinear calculations
   LSORBIT =      F    spin-orbit coupling
   INIWAV =      1    electr: 0-lowe 1-rand  2-diag
   LASPH  =      F    aspherical Exc in radial PAW
   METAGGA=      F    non-selfconsistent MetaGGA calc.

 Electronic Relaxation 1
   ENCUT  =  400.0 eV  29.40 Ry    5.42 a.u.  20.06 20.06 32.61*2*pi/ulx,y,z
   ENINI  =  400.0     initial cutoff
   ENAUG  =  644.9 eV  augmentation charge cutoff
   NELM   =    300;   NELMIN=  2; NELMDL=  0     # of ELM steps 
   EDIFF  = 0.1E-04   stopping-criterion for ELM
   LREAL  =      F    real-space projection
   NLSPLINE    = F    spline interpolate recip. space projectors
   LCOMPAT=      F    compatible to vasp.4.4
   GGA_COMPAT  = T    GGA compatible to vasp.4.4-vasp.4.6
   LMAXPAW     = -100 max onsite density
   LMAXMIX     =    2 max onsite mixed and CHGCAR
   VOSKOWN=      0    Vosko Wilk Nusair interpolation
   ROPT   =    0.00000   0.00000
 Ionic relaxation
   EDIFFG = -.1E-02   stopping-criterion for IOM
   NSW    =      1    number of steps for IOM
   NBLOCK =      1;   KBLOCK =      1    inner block; outer block 
   IBRION =     -1    ionic relax: 0-MD 1-quasi-New 2-CG
   NFREE  =      0    steps in history (QN), initial steepest desc. (CG)
   ISIF   =      2    stress and relaxation
   IWAVPR =     10    prediction:  0-non 1-charg 2-wave 3-comb
   ISYM   =      2    0-nonsym 1-usesym 2-fastsym
   LCORR  =      T    Harris-Foulkes like correction to forces

   POTIM  = 0.5000    time-step for ionic-motion
   TEIN   =    0.0    initial temperature
   TEBEG  =    0.0;   TEEND  =   0.0 temperature during run
   SMASS  =  -3.00    Nose mass-parameter (am)
   estimated Nose-frequenzy (Omega)   =  0.10E-29 period in steps =****** mass=  -0.346E-26a.u.
   SCALEE = 1.0000    scale energy and forces
   NPACO  =    256;   APACO  = 16.0  distance and # of slots for P.C.
   PSTRESS=    0.0 pullay stress

  Mass of Ions in am
   POMASS =  12.01 16.00
  Ionic Valenz
   ZVAL   =   4.00  6.00
  Atomic Wigner-Seitz radii
   RWIGS  =  -1.00 -1.00
  virtual crystal weights 
   VCA    =   1.00  1.00
   NELECT =     206.0000    total number of electrons
   NUPDOWN=      -1.0000    fix difference up-down

 DOS related values:
   EMIN   =  10.00;   EMAX   =-10.00  energy-range for DOS
   EFERMI =   0.00
   ISMEAR =     0;   SIGMA  =   0.05  broadening in eV -4-tet -1-fermi 0-gaus

 Electronic relaxation 2 (details)
   IALGO  =     68    algorithm
   LDIAG  =      T    sub-space diagonalisation (order eigenvalues)
   LSUBROT=      F    optimize rotation matrix (better conditioning)
   TURBO    =      0    0=normal 1=particle mesh
   IRESTART =      0    0=no restart 2=restart with 2 vectors
   NREBOOT  =      0    no. of reboots
   NMIN     =      0    reboot dimension
   EREF     =   0.00    reference energy to select bands
   IMIX   =      4    mixing-type and parameters
     AMIX     =   0.40;   BMIX     =  1.00
     AMIX_MAG =   1.60;   BMIX_MAG =  1.00
     AMIN     =   0.10
     WC   =   100.;   INIMIX=   1;  MIXPRE=   1;  MAXMIX= -45

 Intra band minimization:
   WEIMIN = 0.0000     energy-eigenvalue tresh-hold
   EBREAK =  0.19E-07  absolut break condition
   DEPER  =   0.30     relativ break condition  

   TIME   =   0.40     timestep for ELM

  volume/ion in A,a.u.               =      51.38       346.73
  Fermi-wavevector in a.u.,A,eV,Ry     =   0.701305  1.325274  6.691736  0.491829
  Thomas-Fermi vector in A             =   1.785695
 
 Write flags
   LWAVE        =      F    write WAVECAR
   LDOWNSAMPLE  =      F    k-point downsampling of WAVECAR
   LCHARG       =      F    write CHGCAR
   LVTOT        =      F    write LOCPOT, total local potential
   LVHAR        =      F    write LOCPOT, Hartree potential only
   LELF         =      F    write electronic localiz. function (ELF)
   LORBIT       =      0    0 simple, 1 ext, 2 COOP (PROOUT), +10 PAW based schemes


 Dipole corrections
   LMONO  =      F    monopole corrections only (constant potential shift)
   LDIPOL =      F    correct potential (dipole corrections)
   IDIPOL =      0    1-x, 2-y, 3-z, 4-all directions 
   EPSILON=  1.0000000 bulk dielectric constant

 Exchange correlation treatment:
   GGA     =    --    GGA type
   LEXCH   =     8    internal setting for exchange type
   VOSKOWN=      0    Vosko Wilk Nusair interpolation
   LHFCALC =     F    Hartree Fock is set to
   LHFONE  =     F    Hartree Fock one center treatment
   AEXX    =    0.0000 exact exchange contribution

 Linear response parameters
   LEPSILON=     F    determine dielectric tensor
   LRPA    =     F    only Hartree local field effects (RPA)
   LNABLA  =     F    use nabla operator in PAW spheres
   LVEL    =     F    velocity operator in full k-point grid
   LINTERFAST=   F  fast interpolation
   KINTER  =     0    interpolate to denser k-point grid
   CSHIFT  =0.1000    complex shift for real part using Kramers Kronig
   OMEGAMAX=  -1.0    maximum frequency
   DEG_THRESHOLD= 0.2000000E-02 threshold for treating states as degnerate
   RTIME   =   -0.100 relaxation time in fs
  (WPLASMAI=    0.000 imaginary part of plasma frequency in eV, 0.658/RTIME)
   DFIELD  = 0.0000000 0.0000000 0.0000000 field for delta impulse in time
 
 Orbital magnetization related:
   ORBITALMAG=     F  switch on orbital magnetization
   LCHIMAG   =     F  perturbation theory with respect to B field
   DQ        =  0.001000  dq finite difference perturbation B field
   LLRAUG    =     F  two centre corrections for induced B field



--------------------------------------------------------------------------------------------------------


 Static calculation
 charge density and potential will be updated during run
 non-spin polarized calculation
 RMM-DIIS sequential band-by-band and
  variant of blocked Davidson during initial phase
 perform sub-space diagonalisation
    before iterative eigenvector-optimisation
 modified Broyden-mixing scheme, WC =      100.0
 initial mixing is a Kerker type mixing with AMIX =  0.4000 and BMIX =      1.0000
 Hartree-type preconditioning will be used
 using additional bands           29
 reciprocal scheme for non local part
 use partial core corrections
 calculate Harris-corrections to forces 
   (improved forces if not selfconsistent)
 use gradient corrections 
 use of overlap-Matrix (Vanderbilt PP)
 Gauss-broadening in eV      SIGMA  =   0.05


--------------------------------------------------------------------------------------------------------


  energy-cutoff  :      400.00
  volume of cell :     2620.42
      direct lattice vectors                 reciprocal lattice vectors
    12.300000191  0.000000000  0.000000000     0.081300812 -0.046939053  0.000000000
     6.150000804 10.652112223  0.000000000     0.000000000  0.093878095  0.000000000
     0.000000000  0.000000000 20.000000000     0.000000000  0.000000000  0.050000000

  length of vectors
    12.300000191 12.300000191 20.000000000     0.093878095  0.093878095  0.050000000


 
 old parameters found on file WAVECAR:
  energy-cutoff  :      400.00
  volume of cell :     2620.42
      direct lattice vectors                 reciprocal lattice vectors
    12.300000191  0.000000000  0.000000000     0.081300812 -0.046939053  0.000000000
     6.150000804 10.652112223  0.000000000     0.000000000  0.093878095  0.000000000
     0.000000000  0.000000000 20.000000000     0.000000000  0.000000000  0.050000000

  length of vectors

 
 k-points in units of 2pi/SCALE and weight: K-POINTS                                
   0.00000000  0.00000000  0.00000000       0.111
   0.02710027 -0.01564635  0.00000000       0.444
   0.00000000  0.03129270  0.00000000       0.222
  -0.02710027  0.04693905  0.00000000       0.222
 
 k-points in reciprocal lattice and weights: K-POINTS                                
   0.00000000  0.00000000  0.00000000       0.111
   0.33333333  0.00000000  0.00000000       0.444
   0.00000000  0.33333333  0.00000000       0.222
  -0.33333333  0.33333333  0.00000000       0.222
 
 position of ions in fractional coordinates (direct lattice) 
   0.00000000  0.00000000  0.41799748
   0.20000000  0.00000000  0.41799748
   0.40000000  0.00000000  0.41799748
   0.60000000  0.00000000  0.41799748
   0.80000000  0.00000000  0.41799748
   0.00000000  0.20000000  0.41799748
   0.20000000  0.20000000  0.41799748
   0.40000000  0.20000000  0.41799748
   0.60000000  0.20000000  0.41799748
   0.80000000  0.20000000  0.41799748
   0.00000000  0.40000000  0.41799748
   0.20000000  0.40000000  0.41799748
   0.40000000  0.40000000  0.41799748
   0.60000000  0.40000000  0.41799748
   0.80000000  0.40000000  0.41799748
   0.00000000  0.60000000  0.41799748
   0.20000000  0.60000000  0.41799748
   0.40000000  0.60000000  0.41799748
   0.60000000  0.60000000  0.41799748
   0.80000000  0.60000000  0.41799748
   0.00000000  0.80000000  0.41799748
   0.20000000  0.80000000  0.41799748
   0.40000000  0.80000000  0.41799748
   0.60000000  0.80000000  0.41799748
   0.80000000  0.80000000  0.41799748
   0.06666667  0.06666660  0.41800609
   0.26666667  0.06666660  0.41800609
   0.46666667  0.06666660  0.41800609
   0.66666667  0.06666660  0.41800609
   0.86666667  0.06666660  0.41800609
   0.06666667  0.26666660  0.41800609
   0.26666667  0.26666660  0.41800609
   0.46666667  0.26666660  0.41800609
   0.66666667  0.26666660  0.41800609
   0.86666667  0.26666660  0.41800609
   0.06666667  0.46666660  0.41800609
   0.26666667  0.46666660  0.41800609
   0.46666667  0.46666660  0.41800609
   0.66666667  0.46666660  0.41800609
   0.86666667  0.46666660  0.41750609
   0.06666667  0.66666660  0.41800609
   0.26666667  0.66666660  0.41800609
   0.46666667  0.66666660  0.41800609
   0.66666667  0.66666660  0.41800609
   0.86666667  0.66666660  0.41800609
   0.06666667  0.86666660  0.41800609
   0.26666667  0.86666660  0.41800609
   0.46666667  0.86666660  0.41800609
   0.66666667  0.86666660  0.41800609
   0.86666667  0.86666660  0.41800609
   0.40000000  0.40000000  0.46800609
 
 position of ions in cartesian coordinates  (Angst):
   0.00000000  0.00000000  8.35994958
   2.46000004  0.00000000  8.35994958
   4.92000008  0.00000000  8.35994958
   7.38000011  0.00000000  8.35994958
   9.84000015  0.00000000  8.35994958
   1.23000016  2.13042244  8.35994958
   3.69000020  2.13042244  8.35994958
   6.15000024  2.13042244  8.35994958
   8.61000028  2.13042244  8.35994958
  11.07000031  2.13042244  8.35994958
   2.46000032  4.26084489  8.35994958
   4.92000036  4.26084489  8.35994958
   7.38000040  4.26084489  8.35994958
   9.84000044  4.26084489  8.35994958
  12.30000047  4.26084489  8.35994958
   3.69000048  6.39126733  8.35994958
   6.15000052  6.39126733  8.35994958
   8.61000056  6.39126733  8.35994958
  11.07000060  6.39126733  8.35994958
  13.53000064  6.39126733  8.35994958
   4.92000064  8.52168978  8.35994958
   7.38000068  8.52168978  8.35994958
   9.84000072  8.52168978  8.35994958
  12.30000076  8.52168978  8.35994958
  14.76000080  8.52168978  8.35994958
   1.22999970  0.71014014  8.36012184
   3.68999974  0.71014014  8.36012184
   6.14999977  0.71014014  8.36012184
   8.60999981  0.71014014  8.36012184
  11.06999985  0.71014014  8.36012184
   2.45999986  2.84056258  8.36012184
   4.91999990  2.84056258  8.36012184
   7.37999994  2.84056258  8.36012184
   9.83999997  2.84056258  8.36012184
  12.30000001  2.84056258  8.36012184
   3.69000002  4.97098503  8.36012184
   6.15000006  4.97098503  8.36012184
   8.61000010  4.97098503  8.36012184
  11.07000013  4.97098503  8.36012184
  13.53000017  4.97098503  8.35012184
   4.92000018  7.10140747  8.36012184
   7.38000022  7.10140747  8.36012184
   9.84000026  7.10140747  8.36012184
  12.30000030  7.10140747  8.36012184
  14.76000033  7.10140747  8.36012184
   6.15000034  9.23182991  8.36012184
   8.61000038  9.23182991  8.36012184
  11.07000042  9.23182991  8.36012184
  13.53000046  9.23182991  8.36012184
  15.99000049  9.23182991  8.36012184
   7.38000040  4.26084489  9.36012184
 


--------------------------------------------------------------------------------------------------------


 k-point  1 :   0.0000 0.0000 0.0000  plane waves:   47639
 k-point  2 :   0.3333 0.0000 0.0000  plane waves:   47601
 k-point  3 :   0.0000 0.3333 0.0000  plane waves:   47601
 k-point  4 :  -0.3333 0.3333 0.0000  plane waves:   47598

 maximum and minimum number of plane-waves per node :      5975     5928

 maximum number of plane-waves:     47639
 maximum index in each direction: 
   IXMAX=   20   IYMAX=   20   IZMAX=   32
   IXMIN=  -20   IYMIN=  -20   IZMIN=  -32


 parallel 3D FFT for wavefunctions:
    minimum data exchange during FFTs selected (reduces bandwidth)
 parallel 3D FFT for charge:
    minimum data exchange during FFTs selected (reduces bandwidth)


 total amount of memory used by VASP MPI-rank0    87233. kBytes
=======================================================================

   base      :      30000. kBytes
   nonl-proj :       7912. kBytes
   fftplans  :      26248. kBytes
   grid      :      14579. kBytes
   one-center:         21. kBytes
   wavefun   :       8473. kBytes
 
     INWAV:  cpu time    0.6513: real time    0.6515
 Broyden mixing: mesh for mixing (old mesh)
   NGX = 41   NGY = 41   NGZ = 65
  (NGX  =160   NGY  =160   NGZ  =280)
  gives a total of 109265 points

 initial charge density was supplied:
 number of electron     206.0000000 magnetization 
 keeping initial charge density in first step


--------------------------------------------------------------------------------------------------------


 Maximum index for augmentation-charges         1119 (set IRDMAX)


--------------------------------------------------------------------------------------------------------


 First call to EWALD:  gamma=   0.129
 Maximum number of real-space cells 3x 3x 2
 Maximum number of reciprocal cells 3x 3x 4

    FEWALD:  cpu time    0.0017: real time    0.0031


--------------------------------------- Iteration      1(   1)  ---------------------------------------


    POTLOK:  cpu time    0.1078: real time    0.1088
    SETDIJ:  cpu time    0.0819: real time    0.0833
     EDDAV:  cpu time    3.2807: real time    3.2830
       DOS:  cpu time    0.0004: real time    0.0004
    CHARGE:  cpu time    0.3205: real time    0.3210
    MIXING:  cpu time    0.0071: real time    0.0071
    --------------------------------------------
      LOOP:  cpu time    3.7984: real time    3.8037

 eigenvalue-minimisations  :  1080
 total energy-change (2. order) :-0.4541338E+03  (-0.5691518E+01)
 number of electron     206.0000000 magnetization 
 augmentation part        5.5362931 magnetization 

 Broyden mixing:
  rms(total) = 0.12449E-01    rms(broyden)= 0.12413E-01
  rms(prec ) = 0.12900E-01
  weight for this iteration     100.00

 Free energy of the ion-electron system (eV)
  ---------------------------------------------------
  alpha Z        PSCENC =        82.54348252
  Ewald energy   TEWEN  =     34516.48508603
  -Hartree energ DENC   =    -41034.79963181
  -exchange      EXHF   =         0.00000000
  -V(xc)+E(xc)   XCENC  =       721.37966916
  PAW double counting   =     22781.19595426   -22817.52509957
  entropy T*S    EENTRO =        -0.00014913
  eigenvalues    EBANDS =     -2492.03750980
  atomic energy  EATOM  =      7788.62438962
  Solvation  Ediel_sol  =         0.00000000
  ---------------------------------------------------
  free energy    TOTEN  =      -454.13380873 eV

  energy without entropy =     -454.13365959  energy(sigma->0) =     -454.13373416


--------------------------------------------------------------------------------------------------------




--------------------------------------- Iteration      1(   2)  ---------------------------------------


    POTLOK:  cpu time    0.0976: real time    0.1005
    SETDIJ:  cpu time    0.0786: real time    0.0809
    EDDIAG:  cpu time    0.6218: real time    0.6278
  RMM-DIIS:  cpu time    2.9665: real time    2.9951
    ORTHCH:  cpu time    0.0327: real time    0.0330
       DOS:  cpu time    0.0004: real time    0.0004
    CHARGE:  cpu time    0.3143: real time    0.3169
    MIXING:  cpu time    0.0065: real time    0.0066
    --------------------------------------------
      LOOP:  cpu time    4.1184: real time    4.1612

 eigenvalue-minimisations  :  1131
 total energy-change (2. order) :-0.1940811E+00  (-0.1942898E+00)
 number of electron     206.0000000 magnetization 
 augmentation part        5.5434460 magnetization 

 Broyden mixing:
  rms(total) = 0.63360E-02    rms(broyden)= 0.63247E-02
  rms(prec ) = 0.67252E-02
  weight for this iteration     100.00

 eigenvalues of (default mixing * dielectric matrix)
  average eigenvalue GAMMA=   0.8295
  0.8295

 Free energy of the ion-electron system (eV)
  ---------------------------------------------------
  alpha Z        PSCENC =        82.54348252
  Ewald energy   TEWEN  =     34516.48508603
  -Hartree energ DENC   =    -41034.27731219
  -exchange      EXHF   =         0.00000000
  -V(xc)+E(xc)   XCENC  =       721.35735004
  PAW double counting   =     22792.34369411   -22828.66195296
  entropy T*S    EENTRO =        -0.00010813
  eigenvalues    EBANDS =     -2492.74251885
  atomic energy  EATOM  =      7788.62438962
  Solvation  Ediel_sol  =         0.00000000
  ---------------------------------------------------
  free energy    TOTEN  =      -454.32788982 eV

  energy without entropy =     -454.32778168  energy(sigma->0) =     -454.32783575


--------------------------------------------------------------------------------------------------------




--------------------------------------- Iteration      1(   3)  ---------------------------------------


    POTLOK:  cpu time    0.0972: real time    0.0982
    SETDIJ:  cpu time    0.0797: real time    0.0806
    EDDIAG:  cpu time    0.6202: real time    0.6265
  RMM-DIIS:  cpu time    3.2554: real time    3.2850
    ORTHCH:  cpu time    0.0329: real time    0.0333
       DOS:  cpu time    0.0003: real time    0.0003
    CHARGE:  cpu time    0.3233: real time    0.3261
    MIXING:  cpu time    0.0080: real time    0.0080
    --------------------------------------------
      LOOP:  cpu time    4.4170: real time    4.4580

 eigenvalue-minimisations  :  1256
 total energy-change (2. order) :-0.1139923E-01  (-0.1272311E-01)
 number of electron     206.0000000 magnetization 
 augmentation part        5.5440892 magnetization 

 Broyden mixing:
  rms(total) = 0.44754E-02    rms(broyden)= 0.44730E-02
  rms(prec ) = 0.46583E-02
  weight for this iteration     100.00

 eigenvalues of (default mixing * dielectric matrix)
  average eigenvalue GAMMA=   0.9129
  0.9129  0.9129

 Free energy of the ion-electron system (eV)
  ---------------------------------------------------
  alpha Z        PSCENC =        82.54348252
  Ewald energy   TEWEN  =     34516.48508603
  -Hartree energ DENC   =    -41034.43681389
  -exchange      EXHF   =         0.00000000
  -V(xc)+E(xc)   XCENC  =       721.36468329
  PAW double counting   =     22790.76461571   -22827.08623138
  entropy T*S    EENTRO =        -0.00011735
  eigenvalues    EBANDS =     -2492.59838360
  atomic energy  EATOM  =      7788.62438962
  Solvation  Ediel_sol  =         0.00000000
  ---------------------------------------------------
  free energy    TOTEN  =      -454.33928905 eV

  energy without entropy =     -454.33917170  energy(sigma->0) =     -454.33923037


--------------------------------------------------------------------------------------------------------




--------------------------------------- Iteration      1(   4)  ---------------------------------------


    POTLOK:  cpu time    0.0969: real time    0.1002
    SETDIJ:  cpu time    0.0791: real time    0.0811
    EDDIAG:  cpu time    0.6198: real time    0.6258
  RMM-DIIS:  cpu time    2.6838: real time    2.7084
    ORTHCH:  cpu time    0.0330: real time    0.0333
       DOS:  cpu time    0.0004: real time    0.0004
    CHARGE:  cpu time    0.3130: real time    0.3159
    MIXING:  cpu time    0.0065: real time    0.0065
    --------------------------------------------
      LOOP:  cpu time    3.8325: real time    3.8715

 eigenvalue-minimisations  :  1006
 total energy-change (2. order) :-0.7059879E-03  (-0.7378925E-03)
 number of electron     206.0000000 magnetization 
 augmentation part        5.5447154 magnetization 

 Broyden mixing:
  rms(total) = 0.34066E-02    rms(broyden)= 0.34054E-02
  rms(prec ) = 0.35494E-02
  weight for this iteration     100.00

 eigenvalues of (default mixing * dielectric matrix)
  average eigenvalue GAMMA=   1.3178
  1.8384  1.5106  0.6044

 Free energy of the ion-electron system (eV)
  ---------------------------------------------------
  alpha Z        PSCENC =        82.54348252
  Ewald energy   TEWEN  =     34516.48508603
  -Hartree energ DENC   =    -41034.55078848
  -exchange      EXHF   =         0.00000000
  -V(xc)+E(xc)   XCENC  =       721.36994339
  PAW double counting   =     22787.69488460   -22824.01916845
  entropy T*S    EENTRO =        -0.00011117
  eigenvalues    EBANDS =     -2492.48771310
  atomic energy  EATOM  =      7788.62438962
  Solvation  Ediel_sol  =         0.00000000
  ---------------------------------------------------
  free energy    TOTEN  =      -454.33999504 eV

  energy without entropy =     -454.33988387  energy(sigma->0) =     -454.33993945


--------------------------------------------------------------------------------------------------------




--------------------------------------- Iteration      1(   5)  ---------------------------------------


    POTLOK:  cpu time    0.0972: real time    0.0982
    SETDIJ:  cpu time    0.0844: real time    0.0853
    EDDIAG:  cpu time    0.6155: real time    0.6211
  RMM-DIIS:  cpu time    2.9313: real time    2.9580
    ORTHCH:  cpu time    0.0328: real time    0.0331
       DOS:  cpu time    0.0003: real time    0.0003
    CHARGE:  cpu time    0.3123: real time    0.3149
    MIXING:  cpu time    0.0064: real time    0.0066
    --------------------------------------------
      LOOP:  cpu time    4.0804: real time    4.1175

 eigenvalue-minimisations  :  1125
 total energy-change (2. order) :-0.5763855E-04  (-0.5963072E-04)
 number of electron     206.0000000 magnetization 
 augmentation part        5.5442291 magnetization 

 Broyden mixing:
  rms(total) = 0.65915E-03    rms(broyden)= 0.65598E-03
  rms(prec ) = 0.71960E-03
  weight for this iteration     100.00

 eigenvalues of (default mixing * dielectric matrix)
  average eigenvalue GAMMA=   1.2669
  2.2096  1.1394  1.1394  0.5791

 Free energy of the ion-electron system (eV)
  ---------------------------------------------------
  alpha Z        PSCENC =        82.54348252
  Ewald energy   TEWEN  =     34516.48508603
  -Hartree energ DENC   =    -41034.83749670
  -exchange      EXHF   =         0.00000000
  -V(xc)+E(xc)   XCENC  =       721.38214809
  PAW double counting   =     22779.92775931   -22816.25832433
  entropy T*S    EENTRO =        -0.00011489
  eigenvalues    EBANDS =     -2492.20698233
  atomic energy  EATOM  =      7788.62438962
  Solvation  Ediel_sol  =         0.00000000
  ---------------------------------------------------
  free energy    TOTEN  =      -454.34005268 eV

  energy without entropy =     -454.33993779  energy(sigma->0) =     -454.33999523


--------------------------------------------------------------------------------------------------------




--------------------------------------- Iteration      1(   6)  ---------------------------------------


    POTLOK:  cpu time    0.1031: real time    0.1044
    SETDIJ:  cpu time    0.0787: real time    0.0806
    EDDIAG:  cpu time    0.6160: real time    0.6223
  RMM-DIIS:  cpu time    2.2848: real time    2.3058
    ORTHCH:  cpu time    0.0337: real time    0.0340
       DOS:  cpu time    0.0003: real time    0.0003
    --------------------------------------------
      LOOP:  cpu time    3.1166: real time    3.1474

 eigenvalue-minimisations  :   822
 total energy-change (2. order) :-0.5406910E-05  (-0.4355395E-05)
 number of electron     206.0000000 magnetization 
 augmentation part        5.5442291 magnetization 

 Free energy of the ion-electron system (eV)
  ---------------------------------------------------
  alpha Z        PSCENC =        82.54348252
  Ewald energy   TEWEN  =     34516.48508603
  -Hartree energ DENC   =    -41034.81870658
  -exchange      EXHF   =         0.00000000
  -V(xc)+E(xc)   XCENC  =       721.38120598
  PAW double counting   =     22780.08375120   -22816.41376504
  entropy T*S    EENTRO =        -0.00011419
  eigenvalues    EBANDS =     -2492.22538761
  atomic energy  EATOM  =      7788.62438962
  Solvation  Ediel_sol  =         0.00000000
  ---------------------------------------------------
  free energy    TOTEN  =      -454.34005808 eV

  energy without entropy =     -454.33994389  energy(sigma->0) =     -454.34000099


--------------------------------------------------------------------------------------------------------




 average (electrostatic) potential at core
  the test charge radii are     0.6991  0.7215
  (the norm of the test charge is              1.0000)
       1 -58.2603       2 -58.2603       3 -58.2036       4 -58.0583       5 -58.2036
       6 -58.2604       7 -58.2759       8 -58.1331       9 -58.1331      10 -58.2759
      11 -58.2035      12 -58.1330      13 -60.6863      14 -58.1330      15 -58.2035
      16 -58.0584      17 -58.1331      18 -58.1331      19 -58.0584      20 -58.0650
      21 -58.2036      22 -58.2759      23 -58.2036      24 -58.0654      25 -58.0654
      26 -58.3818      27 -58.2926      28 -58.2216      29 -58.2216      30 -58.2926
      31 -58.2928      32 -58.3146      33 -58.8113      34 -58.3146      35 -58.2928
      36 -58.2214      37 -58.8116      38 -58.8116      39 -58.2214      40 -58.2231
      41 -58.2216      42 -58.3146      43 -58.2216      44 -58.1638      45 -58.1638
      46 -58.2928      47 -58.2928      48 -58.2232      49 -58.1638      50 -58.2232
      51 -81.5746
 
 
 
 E-fermi :  -3.0173     XC(G=0):  -2.2106     alpha+bet : -1.9409


 k-point     1 :       0.0000    0.0000    0.0000
  band No.  band energies     occupation 
      1     -31.7400      2.00000
      2     -22.2710      2.00000
      3     -21.5030      2.00000
      4     -21.5030      2.00000
      5     -21.3944      2.00000
      6     -21.3944      2.00000
      7     -21.3939      2.00000
      8     -20.8742      2.00000
      9     -19.8766      2.00000
     10     -19.8766      2.00000
     11     -19.5492      2.00000
     12     -19.5492      2.00000
     13     -19.5389      2.00000
     14     -19.1913      2.00000
     15     -18.9010      2.00000
     16     -18.9010      2.00000
     17     -18.6436      2.00000
     18     -18.6431      2.00000
     19     -18.6430      2.00000
     20     -17.8842      2.00000
     21     -17.0214      2.00000
     22     -17.0214      2.00000
     23     -16.4778      2.00000
     24     -16.4581      2.00000
     25     -16.4581      2.00000
     26     -16.0496      2.00000
     27     -15.9967      2.00000
     28     -15.9966      2.00000
     29     -15.4975      2.00000
     30     -15.4974      2.00000
     31     -15.4929      2.00000
     32     -15.0896      2.00000
     33     -14.6293      2.00000
     34     -14.6293      2.00000
     35     -14.1498      2.00000
     36     -14.1497      2.00000
     37     -14.1431      2.00000
     38     -13.9646      2.00000
     39     -12.9911      2.00000
     40     -12.9911      2.00000
     41     -12.0313      2.00000
     42     -11.7649      2.00000
     43     -11.7649      2.00000
     44     -11.7616      2.00000
     45     -11.6903      2.00000
     46     -11.6903      2.00000
     47     -11.6517      2.00000
     48     -11.6497      2.00000
     49     -11.6497      2.00000
     50     -11.6487      2.00000
     51     -10.8021      2.00000
     52     -10.8020      2.00000
     53     -10.4286      2.00000
     54     -10.3342      2.00000
     55     -10.2888      2.00000
     56     -10.2888      2.00000
     57     -10.2706      2.00000
     58     -10.0781      2.00000
     59      -9.6853      2.00000
     60      -9.6843      2.00000
     61      -9.3258      2.00000
     62      -9.3250      2.00000
     63      -9.3002      2.00000
     64      -9.2801      2.00000
     65      -9.2801      2.00000
     66      -9.0460      2.00000
     67      -9.0047      2.00000
     68      -9.0046      2.00000
     69      -8.9486      2.00000
     70      -8.9405      2.00000
     71      -8.9405      2.00000
     72      -8.9398      2.00000
     73      -8.9190      2.00000
     74      -8.9188      2.00000
     75      -8.8938      2.00000
     76      -8.4363      2.00000
     77      -7.8032      2.00000
     78      -7.8025      2.00000
     79      -7.3244      2.00000
     80      -7.3231      2.00000
     81      -7.3103      2.00000
     82      -7.3004      2.00000
     83      -7.2992      2.00000
     84      -7.2987      2.00000
     85      -7.1609      2.00000
     86      -7.1608      2.00000
     87      -7.1546      2.00000
     88      -6.7516      2.00000
     89      -6.5085      2.00000
     90      -6.5077      2.00000
     91      -6.2669      2.00000
     92      -6.2464      2.00000
     93      -6.2463      2.00000
     94      -5.9227      2.00000
     95      -5.9208      2.00000
     96      -5.1956      2.00000
     97      -4.7648      2.00000
     98      -4.7631      2.00000
     99      -4.2706      2.00000
    100      -4.2664      2.00000
    101      -4.2663      2.00000
    102      -3.2149      2.00000
    103      -3.2146      2.00000
    104      -2.9162      0.00428
    105      -1.4613      0.00000
    106      -1.4571      0.00000
    107      -1.4570      0.00000
    108      -0.9913      0.00000
    109      -0.9910      0.00000
    110      -0.5430      0.00000
    111       0.4170      0.00000
    112       0.4218      0.00000
    113       0.4218      0.00000
    114       0.5650      0.00000
    115       0.8436      0.00000
    116       0.8439      0.00000
    117       1.2932      0.00000
    118       1.3439      0.00000
    119       1.6725      0.00000
    120       1.8032      0.00000
    121       1.8046      0.00000
    122       1.8049      0.00000
    123       1.8291      0.00000
    124       1.8303      0.00000
    125       2.0336      0.00000
    126       2.1767      0.00000
    127       2.1795      0.00000
    128       2.1795      0.00000
    129       2.3469      0.00000
    130       2.3473      0.00000
    131       2.6222      0.00000
    132       2.6510      0.00000

 k-point     2 :       0.3333    0.0000    0.0000
  band No.  band energies     occupation 
      1     -31.7401      2.00000
      2     -22.1890      2.00000
      3     -21.8693      2.00000
      4     -21.6613      2.00000
      5     -21.4545      2.00000
      6     -21.0347      2.00000
      7     -20.8972      2.00000
      8     -20.7274      2.00000
      9     -20.4201      2.00000
     10     -20.1622      2.00000
     11     -19.7869      2.00000
     12     -19.6991      2.00000
     13     -19.3263      2.00000
     14     -19.2429      2.00000
     15     -19.0617      2.00000
     16     -18.5928      2.00000
     17     -18.4579      2.00000
     18     -18.1213      2.00000
     19     -18.0630      2.00000
     20     -17.5909      2.00000
     21     -17.4978      2.00000
     22     -17.3008      2.00000
     23     -17.2766      2.00000
     24     -16.8514      2.00000
     25     -16.6585      2.00000
     26     -16.1762      2.00000
     27     -15.9779      2.00000
     28     -15.8476      2.00000
     29     -15.2983      2.00000
     30     -15.1698      2.00000
     31     -15.1342      2.00000
     32     -14.8848      2.00000
     33     -14.7818      2.00000
     34     -14.4781      2.00000
     35     -14.4560      2.00000
     36     -13.7672      2.00000
     37     -13.7600      2.00000
     38     -13.1961      2.00000
     39     -13.0894      2.00000
     40     -12.9342      2.00000
     41     -12.9044      2.00000
     42     -12.5852      2.00000
     43     -12.5500      2.00000
     44     -12.3900      2.00000
     45     -12.0221      2.00000
     46     -11.6634      2.00000
     47     -11.4474      2.00000
     48     -11.2962      2.00000
     49     -11.1217      2.00000
     50     -10.9143      2.00000
     51     -10.8501      2.00000
     52     -10.5842      2.00000
     53     -10.5327      2.00000
     54     -10.2852      2.00000
     55     -10.2369      2.00000
     56     -10.1613      2.00000
     57     -10.0492      2.00000
     58      -9.8534      2.00000
     59      -9.8203      2.00000
     60      -9.6537      2.00000
     61      -9.6065      2.00000
     62      -9.5605      2.00000
     63      -9.5276      2.00000
     64      -9.3714      2.00000
     65      -9.3412      2.00000
     66      -9.2600      2.00000
     67      -9.1757      2.00000
     68      -9.0997      2.00000
     69      -9.0817      2.00000
     70      -8.8638      2.00000
     71      -8.7137      2.00000
     72      -8.6642      2.00000
     73      -8.5049      2.00000
     74      -8.4027      2.00000
     75      -8.2874      2.00000
     76      -8.1338      2.00000
     77      -8.0935      2.00000
     78      -8.0654      2.00000
     79      -7.9713      2.00000
     80      -7.8083      2.00000
     81      -7.6196      2.00000
     82      -7.3610      2.00000
     83      -7.3363      2.00000
     84      -7.2664      2.00000
     85      -7.1970      2.00000
     86      -6.9202      2.00000
     87      -6.8718      2.00000
     88      -6.6942      2.00000
     89      -6.5914      2.00000
     90      -6.3475      2.00000
     91      -6.1859      2.00000
     92      -6.0728      2.00000
     93      -5.9224      2.00000
     94      -5.7387      2.00000
     95      -5.6407      2.00000
     96      -5.3223      2.00000
     97      -5.1149      2.00000
     98      -4.9700      2.00000
     99      -4.9226      2.00000
    100      -4.2697      2.00000
    101      -4.1688      2.00000
    102      -3.3366      2.00000
    103      -3.1371      1.99930
    104      -2.8040      0.00000
    105      -1.5913      0.00000
    106      -1.4238      0.00000
    107      -0.8400      0.00000
    108      -0.8191      0.00000
    109      -0.7060      0.00000
    110      -0.6678      0.00000
    111      -0.1286      0.00000
    112      -0.0059      0.00000
    113       0.2931      0.00000
    114       0.7068      0.00000
    115       0.7272      0.00000
    116       1.1012      0.00000
    117       1.1760      0.00000
    118       1.3648      0.00000
    119       1.4678      0.00000
    120       1.5396      0.00000
    121       1.5719      0.00000
    122       1.6391      0.00000
    123       1.8216      0.00000
    124       1.9175      0.00000
    125       2.0387      0.00000
    126       2.2214      0.00000
    127       2.2628      0.00000
    128       2.3336      0.00000
    129       2.3450      0.00000
    130       2.3981      0.00000
    131       2.4605      0.00000
    132       2.7976      0.00000

 k-point     3 :       0.0000    0.3333    0.0000
  band No.  band energies     occupation 
      1     -31.7401      2.00000
      2     -22.1890      2.00000
      3     -21.8692      2.00000
      4     -21.6613      2.00000
      5     -21.4546      2.00000
      6     -21.0347      2.00000
      7     -20.8972      2.00000
      8     -20.7274      2.00000
      9     -20.4201      2.00000
     10     -20.1622      2.00000
     11     -19.7869      2.00000
     12     -19.6991      2.00000
     13     -19.3264      2.00000
     14     -19.2429      2.00000
     15     -19.0617      2.00000
     16     -18.5928      2.00000
     17     -18.4579      2.00000
     18     -18.1213      2.00000
     19     -18.0630      2.00000
     20     -17.5909      2.00000
     21     -17.4978      2.00000
     22     -17.3008      2.00000
     23     -17.2766      2.00000
     24     -16.8514      2.00000
     25     -16.6584      2.00000
     26     -16.1762      2.00000
     27     -15.9779      2.00000
     28     -15.8477      2.00000
     29     -15.2983      2.00000
     30     -15.1698      2.00000
     31     -15.1342      2.00000
     32     -14.8848      2.00000
     33     -14.7818      2.00000
     34     -14.4780      2.00000
     35     -14.4560      2.00000
     36     -13.7672      2.00000
     37     -13.7600      2.00000
     38     -13.1961      2.00000
     39     -13.0894      2.00000
     40     -12.9342      2.00000
     41     -12.9044      2.00000
     42     -12.5852      2.00000
     43     -12.5500      2.00000
     44     -12.3900      2.00000
     45     -12.0221      2.00000
     46     -11.6634      2.00000
     47     -11.4474      2.00000
     48     -11.2962      2.00000
     49     -11.1218      2.00000
     50     -10.9144      2.00000
     51     -10.8501      2.00000
     52     -10.5843      2.00000
     53     -10.5327      2.00000
     54     -10.2853      2.00000
     55     -10.2373      2.00000
     56     -10.1612      2.00000
     57     -10.0486      2.00000
     58      -9.8542      2.00000
     59      -9.8203      2.00000
     60      -9.6530      2.00000
     61      -9.6059      2.00000
     62      -9.5603      2.00000
     63      -9.5280      2.00000
     64      -9.3714      2.00000
     65      -9.3409      2.00000
     66      -9.2591      2.00000
     67      -9.1757      2.00000
     68      -9.0996      2.00000
     69      -9.0828      2.00000
     70      -8.8642      2.00000
     71      -8.7140      2.00000
     72      -8.6646      2.00000
     73      -8.5032      2.00000
     74      -8.4020      2.00000
     75      -8.2886      2.00000
     76      -8.1323      2.00000
     77      -8.0945      2.00000
     78      -8.0671      2.00000
     79      -7.9713      2.00000
     80      -7.8084      2.00000
     81      -7.6192      2.00000
     82      -7.3611      2.00000
     83      -7.3381      2.00000
     84      -7.2655      2.00000
     85      -7.1975      2.00000
     86      -6.9204      2.00000
     87      -6.8736      2.00000
     88      -6.6901      2.00000
     89      -6.5913      2.00000
     90      -6.3480      2.00000
     91      -6.1840      2.00000
     92      -6.0745      2.00000
     93      -5.9223      2.00000
     94      -5.7384      2.00000
     95      -5.6404      2.00000
     96      -5.3223      2.00000
     97      -5.1153      2.00000
     98      -4.9699      2.00000
     99      -4.9226      2.00000
    100      -4.2699      2.00000
    101      -4.1695      2.00000
    102      -3.3367      2.00000
    103      -3.1366      1.99926
    104      -2.8039      0.00000
    105      -1.5914      0.00000
    106      -1.4236      0.00000
    107      -0.8401      0.00000
    108      -0.8191      0.00000
    109      -0.7060      0.00000
    110      -0.6679      0.00000
    111      -0.1285      0.00000
    112      -0.0060      0.00000
    113       0.2930      0.00000
    114       0.7070      0.00000
    115       0.7269      0.00000
    116       1.0980      0.00000
    117       1.1799      0.00000
    118       1.3652      0.00000
    119       1.4686      0.00000
    120       1.5398      0.00000
    121       1.5731      0.00000
    122       1.6375      0.00000
    123       1.8228      0.00000
    124       1.9190      0.00000
    125       2.0417      0.00000
    126       2.2294      0.00000
    127       2.2701      0.00000
    128       2.3420      0.00000
    129       2.4297      0.00000
    130       2.7454      0.00000
    131       3.2585      0.00000
    132       3.6061      0.00000

 k-point     4 :      -0.3333    0.3333    0.0000
  band No.  band energies     occupation 
      1     -31.7402      2.00000
      2     -22.0805      2.00000
      3     -22.0076      2.00000
      4     -21.8017      2.00000
      5     -21.1720      2.00000
      6     -21.1505      2.00000
      7     -20.8674      2.00000
      8     -20.4132      2.00000
      9     -20.3388      2.00000
     10     -20.1720      2.00000
     11     -20.1504      2.00000
     12     -20.1430      2.00000
     13     -19.5669      2.00000
     14     -18.8263      2.00000
     15     -18.6746      2.00000
     16     -18.3725      2.00000
     17     -18.3489      2.00000
     18     -18.3364      2.00000
     19     -17.9300      2.00000
     20     -17.8015      2.00000
     21     -17.6016      2.00000
     22     -17.2615      2.00000
     23     -17.1532      2.00000
     24     -17.1207      2.00000
     25     -16.5432      2.00000
     26     -16.4376      2.00000
     27     -16.2843      2.00000
     28     -15.8085      2.00000
     29     -15.6289      2.00000
     30     -15.1754      2.00000
     31     -14.9695      2.00000
     32     -14.6525      2.00000
     33     -13.9602      2.00000
     34     -13.9394      2.00000
     35     -13.9246      2.00000
     36     -13.8736      2.00000
     37     -13.8639      2.00000
     38     -13.7920      2.00000
     39     -13.6746      2.00000
     40     -13.4949      2.00000
     41     -13.0377      2.00000
     42     -12.4746      2.00000
     43     -12.2540      2.00000
     44     -12.0714      2.00000
     45     -11.8235      2.00000
     46     -11.7731      2.00000
     47     -11.5633      2.00000
     48     -11.5456      2.00000
     49     -11.5228      2.00000
     50     -10.9292      2.00000
     51     -10.8176      2.00000
     52     -10.5303      2.00000
     53     -10.2060      2.00000
     54     -10.2038      2.00000
     55     -10.1941      2.00000
     56     -10.0947      2.00000
     57     -10.0526      2.00000
     58     -10.0219      2.00000
     59      -9.9031      2.00000
     60      -9.7522      2.00000
     61      -9.7484      2.00000
     62      -9.5642      2.00000
     63      -9.4410      2.00000
     64      -9.4076      2.00000
     65      -9.1976      2.00000
     66      -9.0453      2.00000
     67      -9.0330      2.00000
     68      -8.9030      2.00000
     69      -8.8855      2.00000
     70      -8.6893      2.00000
     71      -8.6372      2.00000
     72      -8.6353      2.00000
     73      -8.6241      2.00000
     74      -8.5817      2.00000
     75      -8.3739      2.00000
     76      -8.2517      2.00000
     77      -8.1647      2.00000
     78      -8.0356      2.00000
     79      -7.9841      2.00000
     80      -7.8795      2.00000
     81      -7.8580      2.00000
     82      -7.8547      2.00000
     83      -7.2248      2.00000
     84      -7.1847      2.00000
     85      -7.1257      2.00000
     86      -6.8874      2.00000
     87      -6.7229      2.00000
     88      -6.6128      2.00000
     89      -6.4601      2.00000
     90      -6.2661      2.00000
     91      -6.1019      2.00000
     92      -5.9166      2.00000
     93      -5.9111      2.00000
     94      -5.8977      2.00000
     95      -5.4524      2.00000
     96      -5.4255      2.00000
     97      -5.1218      2.00000
     98      -5.0141      2.00000
     99      -4.9805      2.00000
    100      -4.9577      2.00000
    101      -3.7329      2.00000
    102      -3.4582      2.00000
    103      -3.2800      2.00000
    104      -2.3873      0.00000
    105      -2.2243      0.00000
    106      -0.9286      0.00000
    107      -0.8820      0.00000
    108      -0.8676      0.00000
    109      -0.5385      0.00000
    110      -0.2639      0.00000
    111      -0.2111      0.00000
    112       0.2519      0.00000
    113       0.2581      0.00000
    114       0.2605      0.00000
    115       0.5992      0.00000
    116       0.7915      0.00000
    117       0.9511      0.00000
    118       0.9764      0.00000
    119       1.0637      0.00000
    120       1.7373      0.00000
    121       1.7502      0.00000
    122       1.7737      0.00000
    123       1.8290      0.00000
    124       2.1110      0.00000
    125       2.1151      0.00000
    126       2.1170      0.00000
    127       2.2483      0.00000
    128       2.2502      0.00000
    129       2.3632      0.00000
    130       3.0001      0.00000
    131       3.0141      0.00000
    132       3.0363      0.00000


--------------------------------------------------------------------------------------------------------


 soft charge-density along one line, spin component           1
         0         1         2         3         4         5         6         7         8         9
 total charge-density along one line
 
 pseudopotential strength for first ion, spin component:           1
 10.222  13.594   0.000  -0.000   0.000  -0.000   0.000  -0.000
 13.594  18.076   0.000  -0.000   0.000  -0.000   0.000  -0.000
  0.000   0.000  -4.352  -0.000  -0.000   8.513   0.000   0.000
 -0.000  -0.000  -0.000  -4.344  -0.000   0.000   8.502   0.000
  0.000   0.000  -0.000  -0.000  -4.352   0.000   0.000   8.513
 -0.000  -0.000   8.513   0.000   0.000 -18.787  -0.000  -0.000
  0.000   0.000   0.000   8.502   0.000  -0.000 -18.776  -0.000
 -0.000  -0.000   0.000   0.000   8.513  -0.000  -0.000 -18.787
 total augmentation occupancy for first ion, spin component:           1
  8.358  -3.741   0.001   0.000   0.003   0.000   0.000   0.001
 -3.741   1.730  -0.002  -0.000  -0.003  -0.000   0.000  -0.000
  0.001  -0.002   1.840  -0.000  -0.001   0.174   0.000   0.000
  0.000  -0.000  -0.000   1.223  -0.000   0.000   0.078   0.000
  0.003  -0.003  -0.001  -0.000   1.839   0.000   0.000   0.174
  0.000  -0.000   0.174   0.000   0.000   0.018   0.000   0.000
  0.000   0.000   0.000   0.078   0.000   0.000   0.005   0.000
  0.001  -0.000   0.000   0.000   0.174   0.000   0.000   0.018


------------------------ aborting loop because EDIFF is reached ----------------------------------------


    CHARGE:  cpu time    0.3164: real time    0.3192
    FORLOC:  cpu time    0.0291: real time    0.0294
    FORNL :  cpu time    1.6557: real time    1.6709
    STRESS:  cpu time    2.9213: real time    2.9479
    FORCOR:  cpu time    0.1191: real time    0.1200
    FORHAR:  cpu time    0.0490: real time    0.0496
    MIXING:  cpu time    0.0035: real time    0.0035
    OFIELD:  cpu time    0.0001: real time    0.0001

  FORCE on cell =-STRESS in cart. coord.  units (eV):
  Direction    XX          YY          ZZ          XY          YZ          ZX
  --------------------------------------------------------------------------------------
  Alpha Z    82.54348    82.54348    82.54348
  Ewald   41234.37615 41234.43397-47952.34570     0.00195    -0.00742    -0.00002
  Hartree 40516.61586 40516.67595-39998.53159     0.00002    -0.00661     0.00000
  E(xc)    -777.15001  -777.15013  -804.22830     0.00001    -0.00001     0.00000
  Local  -83988.64782-83988.76800 85337.24091    -0.00050     0.01585     0.00001
  n-local  -203.93749  -203.93689  -194.69543    -0.20816     0.00052     0.20587
  augment   -12.37994   -12.37946   -14.04659    -0.00049    -0.00003     0.00000
  Kinetic  3164.13689  3164.13542  3596.31033     3.24864    -0.00354    -1.73412
  Fock        0.00000     0.00000     0.00000     0.00000     0.00000     0.00000
  -------------------------------------------------------------------------------------
  Total      15.55711    15.55435    52.24712     0.00000    -0.00125    -0.00000
  in kB       9.51193     9.51024    31.94494     0.00000    -0.00077    -0.00000
  external pressure =       16.99 kB  Pullay stress =        0.00 kB


 VOLUME and BASIS-vectors are now :
 -----------------------------------------------------------------------------
  energy-cutoff  :      400.00
  volume of cell :     2620.42
      direct lattice vectors                 reciprocal lattice vectors
    12.300000191  0.000000000  0.000000000     0.081300812 -0.046939053  0.000000000
     6.150000804 10.652112223  0.000000000     0.000000000  0.093878095  0.000000000
     0.000000000  0.000000000 20.000000000     0.000000000  0.000000000  0.050000000

  length of vectors
    12.300000191 12.300000191 20.000000000     0.093878095  0.093878095  0.050000000


 FORCES acting on ions
    electron-ion (+dipol)            ewald-force                    non-local-force                 convergence-correction
 -----------------------------------------------------------------------------------------------
   -.148E+01 -.855E+00 0.277E+01   0.135E+01 0.778E+00 -.276E+01   0.853E-01 0.491E-01 -.322E-04   -.106E-03 0.709E-03 0.271E-04
   0.148E+01 -.855E+00 0.277E+01   -.135E+01 0.778E+00 -.276E+01   -.853E-01 0.491E-01 -.322E-04   0.120E-03 0.709E-03 0.271E-04
   0.370E+01 0.642E+01 0.379E+01   -.374E+01 -.649E+01 -.374E+01   -.114E+00 0.772E-01 -.717E-01   0.417E-03 0.887E-03 0.104E-03
   -.376E-05 0.129E+02 0.478E+01   -.525E-04 -.131E+02 -.492E+01   0.891E-09 0.134E-01 0.111E+00   0.689E-05 0.922E-03 0.247E-04
   -.370E+01 0.642E+01 0.379E+01   0.374E+01 -.649E+01 -.374E+01   0.114E+00 0.772E-01 -.717E-01   -.403E-03 0.887E-03 0.104E-03
   -.565E-05 0.171E+01 0.269E+01   -.505E-04 -.156E+01 -.268E+01   -.655E-08 -.983E-01 -.429E-02   0.688E-05 -.283E-03 -.373E-03
   0.117E+02 0.673E+01 0.484E+01   -.113E+02 -.655E+01 -.489E+01   0.108E+00 0.623E-01 0.553E-01   0.286E-03 0.295E-03 -.338E-03
   0.209E+02 0.362E+02 0.186E+02   -.214E+02 -.371E+02 -.190E+02   0.638E+00 0.654E+00 0.545E+00   0.233E-03 0.367E-03 -.774E-04
   -.209E+02 0.362E+02 0.186E+02   0.214E+02 -.371E+02 -.190E+02   -.638E+00 0.654E+00 0.545E+00   -.219E-03 0.367E-03 -.774E-04
   -.117E+02 0.673E+01 0.484E+01   0.113E+02 -.655E+01 -.489E+01   -.108E+00 0.623E-01 0.553E-01   -.272E-03 0.295E-03 -.338E-03
   0.742E+01 -.103E-01 0.304E+01   -.750E+01 0.399E-02 -.296E+01   0.104E-01 -.138E+00 -.165E+00   0.783E-03 0.945E-04 -.282E-02
   0.418E+02 -.402E-01 0.186E+02   -.428E+02 -.824E-04 -.190E+02   0.886E+00 0.225E+00 0.549E+00   0.232E-03 0.288E-04 -.691E-03
   -.530E-05 0.104E-02 0.291E+03   -.512E-04 -.109E-03 -.346E+03   0.421E-10 0.632E-03 0.713E+01   0.709E-05 -.102E-02 0.170E-02
   -.418E+02 -.402E-01 0.186E+02   0.428E+02 -.822E-04 -.190E+02   -.886E+00 0.225E+00 0.549E+00   -.218E-03 0.289E-04 -.691E-03
   -.742E+01 -.103E-01 0.304E+01   0.750E+01 0.399E-02 -.296E+01   -.104E-01 -.138E+00 -.165E+00   -.769E-03 0.945E-04 -.282E-02
   0.111E+02 -.643E+01 0.470E+01   -.113E+02 0.655E+01 -.484E+01   0.117E-01 -.647E-02 0.108E+00   0.589E-03 -.562E-03 -.682E-03
   0.210E+02 -.362E+02 0.186E+02   -.214E+02 0.371E+02 -.190E+02   0.248E+00 -.880E+00 0.546E+00   -.211E-03 0.314E-03 0.181E-04
   -.210E+02 -.362E+02 0.186E+02   0.214E+02 0.371E+02 -.190E+02   -.248E+00 -.880E+00 0.546E+00   0.225E-03 0.314E-03 0.182E-04
   -.111E+02 -.643E+01 0.470E+01   0.113E+02 0.655E+01 -.484E+01   -.117E-01 -.647E-02 0.108E+00   -.575E-03 -.562E-03 -.682E-03
   -.427E-05 -.148E+01 0.205E+01   -.519E-04 0.155E+01 -.198E+01   -.570E-08 -.856E-01 -.112E+00   0.687E-05 -.729E-03 -.259E-02
   0.371E+01 -.641E+01 0.379E+01   -.374E+01 0.649E+01 -.374E+01   0.124E+00 0.602E-01 -.712E-01   0.305E-03 -.697E-03 0.286E-04
   -.616E-05 -.135E+02 0.487E+01   -.500E-04 0.131E+02 -.492E+01   -.829E-08 -.125E+00 0.525E-01   0.688E-05 -.731E-03 0.131E-04
   -.371E+01 -.641E+01 0.379E+01   0.374E+01 0.649E+01 -.374E+01   -.124E+00 0.602E-01 -.712E-01   -.291E-03 -.697E-03 0.286E-04
   -.128E+01 0.741E+00 0.277E+01   0.135E+01 -.778E+00 -.274E+01   -.749E-01 0.433E-01 -.118E-01   -.353E-03 0.529E-03 0.555E-05
   0.128E+01 0.741E+00 0.277E+01   -.135E+01 -.778E+00 -.274E+01   0.749E-01 0.433E-01 -.118E-01   0.367E-03 0.529E-03 0.555E-05
   0.728E-04 -.519E-03 0.247E+01   0.528E-04 0.213E-03 -.246E+01   0.615E-11 0.923E-04 -.103E-01   -.128E-04 0.155E-03 -.591E-04
   0.531E+01 0.407E+01 0.338E+01   -.514E+01 -.429E+01 -.335E+01   -.714E-01 0.362E-02 -.249E-01   0.289E-03 0.720E-03 -.891E-04
   0.607E+01 0.171E+02 0.686E+01   -.581E+01 -.171E+02 -.648E+01   -.662E-01 0.161E+00 -.121E+00   0.512E-04 0.864E-04 0.756E-04
   -.607E+01 0.171E+02 0.686E+01   0.581E+01 -.171E+02 -.648E+01   0.662E-01 0.161E+00 -.121E+00   -.768E-04 0.864E-04 0.756E-04
   -.531E+01 0.407E+01 0.338E+01   0.514E+01 -.429E+01 -.335E+01   0.714E-01 0.362E-02 -.249E-01   -.315E-03 0.720E-03 -.891E-04
   0.618E+01 0.256E+01 0.324E+01   -.629E+01 -.230E+01 -.322E+01   -.328E-01 -.638E-01 -.107E-01   0.114E-02 0.115E-03 -.837E-03
   0.283E+02 0.163E+02 0.126E+02   -.286E+02 -.165E+02 -.131E+02   -.158E+00 -.917E-01 0.146E+00   -.139E-03 -.274E-03 -.418E-03
   0.103E-03 0.878E+02 0.586E+02   0.211E-04 -.922E+02 -.663E+02   -.426E-07 -.640E+00 0.330E+01   -.129E-04 0.778E-03 -.228E-03
   -.283E+02 0.163E+02 0.126E+02   0.286E+02 -.165E+02 -.131E+02   0.158E+00 -.917E-01 0.146E+00   0.113E-03 -.274E-03 -.418E-03
   -.618E+01 0.256E+01 0.324E+01   0.629E+01 -.230E+01 -.322E+01   0.328E-01 -.638E-01 -.107E-01   -.117E-02 0.115E-03 -.837E-03
   0.179E+02 -.331E+01 0.671E+01   -.177E+02 0.349E+01 -.634E+01   0.106E+00 -.138E+00 -.109E+00   -.102E-03 -.709E-03 -.118E-02
   0.760E+02 -.439E+02 0.586E+02   -.799E+02 0.461E+02 -.663E+02   -.554E+00 0.320E+00 0.330E+01   0.477E-04 -.106E-02 0.475E-03
   -.760E+02 -.439E+02 0.586E+02   0.799E+02 0.461E+02 -.663E+02   0.554E+00 0.320E+00 0.330E+01   -.735E-04 -.106E-02 0.475E-03
   -.179E+02 -.331E+01 0.671E+01   0.177E+02 0.349E+01 -.634E+01   -.106E+00 -.138E+00 -.109E+00   0.762E-04 -.710E-03 -.118E-02
   0.729E-04 -.606E+00 0.766E+01   0.529E-04 0.844E+00 -.767E+01   -.103E-07 -.155E+00 0.139E+00   -.128E-04 -.497E-03 -.590E-02
   0.118E+02 -.138E+02 0.684E+01   -.119E+02 0.136E+02 -.646E+01   0.172E+00 -.232E-01 -.121E+00   0.635E-03 -.879E-04 -.801E-04
   0.763E-04 -.327E+02 0.126E+02   0.493E-04 0.330E+02 -.131E+02   0.122E-07 0.183E+00 0.145E+00   -.128E-04 0.308E-03 -.103E-03
   -.118E+02 -.138E+02 0.684E+01   0.119E+02 0.136E+02 -.646E+01   -.172E+00 -.232E-01 -.121E+00   -.660E-03 -.880E-04 -.800E-04
   -.385E+01 -.222E+01 0.266E+01   0.378E+01 0.218E+01 -.271E+01   -.201E-01 -.112E-01 0.258E-01   -.336E-03 -.114E-02 -.762E-03
   0.385E+01 -.222E+01 0.266E+01   -.378E+01 0.218E+01 -.271E+01   0.201E-01 -.112E-01 0.258E-01   0.310E-03 -.114E-02 -.762E-03
   0.873E+00 -.663E+01 0.339E+01   -.115E+01 0.660E+01 -.336E+01   0.388E-01 0.601E-01 -.237E-01   0.288E-03 -.716E-03 0.743E-04
   -.873E+00 -.663E+01 0.339E+01   0.115E+01 0.660E+01 -.336E+01   -.388E-01 0.601E-01 -.237E-01   -.313E-03 -.717E-03 0.743E-04
   -.526E+00 0.303E+00 0.291E+01   0.732E+00 -.422E+00 -.288E+01   -.134E+00 0.771E-01 -.532E-01   -.680E-03 0.595E-03 0.124E-03
   0.753E-04 0.444E+01 0.279E+01   0.503E-04 -.437E+01 -.283E+01   0.150E-08 0.226E-01 0.139E-01   -.128E-04 0.167E-02 0.361E-04
   0.526E+00 0.303E+00 0.291E+01   -.732E+00 -.422E+00 -.288E+01   0.134E+00 0.771E-01 -.532E-01   0.654E-03 0.595E-03 0.124E-03
   -.281E-05 0.207E-03 -.723E+03   -.189E-04 0.100E-02 0.846E+03   -.197E-09 -.295E-02 -.638E+02   0.919E-05 0.102E-02 -.442E-02
 -----------------------------------------------------------------------------------------------
   0.172E-02 0.181E-02 0.441E+02   0.320E-13 0.348E-13 -.227E-12   -.164E-09 -.247E-02 -.441E+02   -.139E-03 0.575E-03 -.260E-01
 
 
 POSITION                                       TOTAL-FORCE (eV/Angst)
 -----------------------------------------------------------------------------------
      0.00000      0.00000      8.35995        -0.047492     -0.027652      0.009512
      2.46000      0.00000      8.35995         0.047492     -0.027652      0.009512
      4.92000      0.00000      8.35995        -0.159130      0.014515     -0.026597
      7.38000      0.00000      8.35995        -0.000000     -0.207633     -0.027469
      9.84000      0.00000      8.35995         0.159130      0.014515     -0.026597
      1.23000      2.13042      8.35995         0.000000      0.054953      0.005377
      3.69000      2.13042      8.35995         0.429023      0.247439      0.005125
      6.15000      2.13042      8.35995         0.094393     -0.204880      0.164441
      8.61000      2.13042      8.35995        -0.094393     -0.204880      0.164441
     11.07000      2.13042      8.35995        -0.429023      0.247439      0.005125
      2.46000      4.26084      8.35995        -0.067444     -0.144438     -0.086458
      4.92000      4.26084      8.35995        -0.130109      0.185210      0.169315
      7.38000      4.26084      8.35995         0.000000      0.000546    -48.157937
      9.84000      4.26084      8.35995         0.130109      0.185210      0.169315
     12.30000      4.26084      8.35995         0.067444     -0.144438     -0.086458
      3.69000      6.39127      8.35995        -0.179886      0.104123     -0.030588
      6.15000      6.39127      8.35995        -0.224710      0.020108      0.164852
      8.61000      6.39127      8.35995         0.224710      0.020108      0.164852
     11.07000      6.39127      8.35995         0.179886      0.104123     -0.030588
     13.53000      6.39127      8.35995        -0.000000     -0.014017     -0.043215
      4.92000      8.52169      8.35995         0.092154      0.130621     -0.025881
      7.38000      8.52169      8.35995        -0.000000     -0.495090     -0.000063
      9.84000      8.52169      8.35995        -0.092154      0.130621     -0.025881
     12.30000      8.52169      8.35995        -0.011472      0.006578      0.022663
     14.76000      8.52169      8.35995         0.011472      0.006578      0.022663
      1.23000      0.71014      8.36012        -0.000000     -0.000057     -0.006704
      3.69000      0.71014      8.36012         0.097229     -0.217126      0.010175
      6.15000      0.71014      8.36012         0.194191      0.250473      0.257067
      8.61000      0.71014      8.36012        -0.194191      0.250473      0.257067
     11.07000      0.71014      8.36012        -0.097229     -0.217126      0.010175
      2.46000      2.84056      8.36012        -0.139737      0.192808      0.014456
      4.92000      2.84056      8.36012        -0.441359     -0.255436     -0.356094
      7.38000      2.84056      8.36012        -0.000000     -5.075813     -4.348570
      9.84000      2.84056      8.36012         0.441359     -0.255436     -0.356094
     12.30000      2.84056      8.36012         0.139737      0.192808      0.014456
      3.69000      4.97099      8.36012         0.314138      0.042595      0.261748
      6.15000      4.97099      8.36012        -4.396362      2.537958     -4.348971
      8.61000      4.97099      8.36012         4.396363      2.537958     -4.348971
     11.07000      4.97099      8.36012        -0.314138      0.042595      0.261748
     13.53000      4.97099      8.35012         0.000000      0.082511      0.121929
      4.92000      7.10141      8.36012         0.119444     -0.293353      0.256302
      7.38000      7.10141      8.36012         0.000000      0.509848     -0.355250
      9.84000      7.10141      8.36012        -0.119444     -0.293353      0.256302
     12.30000      7.10141      8.36012        -0.082479     -0.047445     -0.022318
     14.76000      7.10141      8.36012         0.082479     -0.047445     -0.022318
      6.15000      9.23183      8.36012        -0.236751      0.024508      0.010191
      8.61000      9.23183      8.36012         0.236751      0.024508      0.010191
     11.07000      9.23183      8.36012         0.071376     -0.041287     -0.021745
     13.53000      9.23183      8.36012         0.000000      0.094827     -0.027131
     15.99000      9.23183      8.36012        -0.071376     -0.041287     -0.021745
      7.38000      4.26084      9.36012        -0.000000     -0.000719     59.984645
 -----------------------------------------------------------------------------------
    total drift:                                0.001579     -0.000080     -0.000545


--------------------------------------------------------------------------------------------------------



  FREE ENERGIE OF THE ION-ELECTRON SYSTEM (eV)
  ---------------------------------------------------
  free  energy   TOTEN  =      -454.34005808 eV

  energy  without entropy=     -454.33994389  energy(sigma->0) =     -454.34000099
 


--------------------------------------------------------------------------------------------------------


    POTLOK:  cpu time    0.1771: real time    0.1785


--------------------------------------------------------------------------------------------------------


 stress matrix after NEB project (eV)
     15.55711      0.00000     -0.00000
      0.00000     15.55435     -0.00125
     -0.00000     -0.00125     52.24712
  FORCES: max atom, RMS    59.984645   10.896551
  FORCE total and by dimension   77.816939   59.984645
  Stress total and by dimension   56.689710   52.247121
     LOOP+:  cpu time   28.7224: real time   28.9707
    4ORBIT:  cpu time    0.0000: real time    0.0000

 total amount of memory used by VASP MPI-rank0    87233. kBytes
=======================================================================

   base      :      30000. kBytes
   nonl-proj :       7912. kBytes
   fftplans  :      26248. kBytes
   grid      :      14579. kBytes
   one-center:         21. kBytes
   wavefun   :       8473. kBytes
 
  
  
 General timing and accounting informations for this job:
 ========================================================
  
                  Total CPU time used (sec):       36.102
                            User time (sec):       33.742
                          System time (sec):        2.360
                         Elapsed time (sec):       36.394
  
                   Maximum memory used (kb):      367564.
                   Average memory used (kb):           0.
  
                          Minor page faults:        98129
                          Major page faults:            0
                 Voluntary context switches:         1226
