  51  51   0   0
  0.5138078E+02  0.1230000E-08  0.1230000E-08  0.2000000E-08  0.5000000E-15
  1.000000000000000E-004
  CAR 
                                         
      5.97458054    -33.53497569  301     -3.01634304      1.00000000
    -33.535  0.0000E+00  0.0000E+00
    -33.403  0.0000E+00  0.0000E+00
    -33.272  0.0000E+00  0.0000E+00
    -33.140  0.0000E+00  0.0000E+00
    -33.008  0.0000E+00  0.0000E+00
    -32.876  0.0000E+00  0.0000E+00
    -32.745  0.0000E+00  0.0000E+00
    -32.613  0.0000E+00  0.0000E+00
    -32.481  0.0000E+00  0.0000E+00
    -32.350  0.0000E+00  0.0000E+00
    -32.218  0.0000E+00  0.0000E+00
    -32.086  0.0000E+00  0.0000E+00
    -31.955  0.8219E-08  0.1082E-08
    -31.823  0.1344E+00  0.1770E-01
    -31.691  0.1372E+02  0.1824E+01
    -31.559  0.1336E+01  0.2000E+01
    -31.428  0.2893E-05  0.2000E+01
    -31.296  0.0000E+00  0.2000E+01
    -31.164  0.0000E+00  0.2000E+01
    -31.033  0.0000E+00  0.2000E+01
    -30.901  0.0000E+00  0.2000E+01
    -30.769  0.0000E+00  0.2000E+01
    -30.638  0.0000E+00  0.2000E+01
    -30.506  0.0000E+00  0.2000E+01
    -30.374  0.0000E+00  0.2000E+01
    -30.243  0.0000E+00  0.2000E+01
    -30.111  0.0000E+00  0.2000E+01
    -29.979  0.0000E+00  0.2000E+01
    -29.847  0.0000E+00  0.2000E+01
    -29.716  0.0000E+00  0.2000E+01
    -29.584  0.0000E+00  0.2000E+01
    -29.452  0.0000E+00  0.2000E+01
    -29.321  0.0000E+00  0.2000E+01
    -29.189  0.0000E+00  0.2000E+01
    -29.057  0.0000E+00  0.2000E+01
    -28.926  0.0000E+00  0.2000E+01
    -28.794  0.0000E+00  0.2000E+01
    -28.662  0.0000E+00  0.2000E+01
    -28.530  0.0000E+00  0.2000E+01
    -28.399  0.0000E+00  0.2000E+01
    -28.267  0.0000E+00  0.2000E+01
    -28.135  0.0000E+00  0.2000E+01
    -28.004  0.0000E+00  0.2000E+01
    -27.872  0.0000E+00  0.2000E+01
    -27.740  0.0000E+00  0.2000E+01
    -27.609  0.0000E+00  0.2000E+01
    -27.477  0.0000E+00  0.2000E+01
    -27.345  0.0000E+00  0.2000E+01
    -27.213  0.0000E+00  0.2000E+01
    -27.082  0.0000E+00  0.2000E+01
    -26.950  0.0000E+00  0.2000E+01
    -26.818  0.0000E+00  0.2000E+01
    -26.687  0.0000E+00  0.2000E+01
    -26.555  0.0000E+00  0.2000E+01
    -26.423  0.0000E+00  0.2000E+01
    -26.292  0.0000E+00  0.2000E+01
    -26.160  0.0000E+00  0.2000E+01
    -26.028  0.0000E+00  0.2000E+01
    -25.896  0.0000E+00  0.2000E+01
    -25.765  0.0000E+00  0.2000E+01
    -25.633  0.0000E+00  0.2000E+01
    -25.501  0.0000E+00  0.2000E+01
    -25.370  0.0000E+00  0.2000E+01
    -25.238  0.0000E+00  0.2000E+01
    -25.106  0.0000E+00  0.2000E+01
    -24.975  0.0000E+00  0.2000E+01
    -24.843  0.0000E+00  0.2000E+01
    -24.711  0.0000E+00  0.2000E+01
    -24.579  0.0000E+00  0.2000E+01
    -24.448  0.0000E+00  0.2000E+01
    -24.316  0.0000E+00  0.2000E+01
    -24.184  0.0000E+00  0.2000E+01
    -24.053  0.0000E+00  0.2000E+01
    -23.921  0.0000E+00  0.2000E+01
    -23.789  0.0000E+00  0.2000E+01
    -23.658  0.0000E+00  0.2000E+01
    -23.526  0.0000E+00  0.2000E+01
    -23.394  0.0000E+00  0.2000E+01
    -23.262  0.0000E+00  0.2000E+01
    -23.131  0.0000E+00  0.2000E+01
    -22.999  0.0000E+00  0.2000E+01
    -22.867  0.0000E+00  0.2000E+01
    -22.736  0.0000E+00  0.2000E+01
    -22.604  0.0000E+00  0.2000E+01
    -22.472  0.9446E-08  0.2000E+01
    -22.341  0.3971E-01  0.2005E+01
    -22.209  0.4397E+01  0.2584E+01
    -22.077  0.9185E+01  0.3794E+01
    -21.946  0.4970E+01  0.4448E+01
    -21.814  0.1076E+02  0.5865E+01
    -21.682  0.5594E+01  0.6602E+01
    -21.550  0.7575E+01  0.7600E+01
    -21.419  0.1272E+02  0.9275E+01
    -21.287  0.5504E+01  0.9999E+01
    -21.155  0.3750E+01  0.1049E+02
    -21.024  0.9405E+01  0.1173E+02
    -20.892  0.1053E+02  0.1312E+02
    -20.760  0.1012E+02  0.1445E+02
    -20.629  0.8351E+01  0.1555E+02
    -20.497  0.2118E+00  0.1558E+02
    -20.365  0.1318E+02  0.1732E+02
    -20.233  0.3890E+01  0.1783E+02
    -20.102  0.1859E+02  0.2028E+02
    -19.970  0.1284E+01  0.2045E+02
    -19.838  0.3605E+01  0.2092E+02
    -19.707  0.1407E+02  0.2277E+02
    -19.575  0.8450E+01  0.2389E+02
    -19.443  0.5921E+01  0.2467E+02
    -19.312  0.7004E+01  0.2559E+02
    -19.180  0.1392E+02  0.2742E+02
    -19.048  0.7574E+01  0.2842E+02
    -18.916  0.4627E+01  0.2903E+02
    -18.785  0.5294E+01  0.2973E+02
    -18.653  0.5263E+01  0.3042E+02
    -18.521  0.1383E+02  0.3224E+02
    -18.390  0.1130E+02  0.3373E+02
    -18.258  0.8749E+01  0.3488E+02
    -18.126  0.4834E+01  0.3552E+02
    -17.995  0.1531E+02  0.3753E+02
    -17.863  0.4810E+01  0.3817E+02
    -17.731  0.3716E+01  0.3866E+02
    -17.599  0.6003E+01  0.3945E+02
    -17.468  0.1577E+02  0.4152E+02
    -17.336  0.3921E+01  0.4204E+02
    -17.204  0.2141E+02  0.4486E+02
    -17.073  0.6864E+01  0.4576E+02
    -16.941  0.3502E+01  0.4623E+02
    -16.809  0.8985E+01  0.4741E+02
    -16.678  0.4204E+01  0.4796E+02
    -16.546  0.8648E+01  0.4910E+02
    -16.414  0.8898E+01  0.5027E+02
    -16.282  0.3064E+01  0.5068E+02
    -16.151  0.9231E+01  0.5189E+02
    -16.019  0.5920E+01  0.5267E+02
    -15.887  0.1303E+02  0.5439E+02
    -15.756  0.1197E+02  0.5596E+02
    -15.624  0.2137E+01  0.5625E+02
    -15.492  0.4276E+01  0.5681E+02
    -15.361  0.2702E+01  0.5716E+02
    -15.229  0.1018E+02  0.5851E+02
    -15.097  0.2204E+02  0.6141E+02
    -14.965  0.4802E+01  0.6204E+02
    -14.834  0.1149E+02  0.6355E+02
    -14.702  0.1033E+02  0.6491E+02
    -14.570  0.6409E+01  0.6576E+02
    -14.439  0.1592E+02  0.6785E+02
    -14.307  0.4489E+01  0.6844E+02
    -14.175  0.1017E+01  0.6858E+02
    -14.044  0.4095E+01  0.6912E+02
    -13.912  0.1018E+02  0.7046E+02
    -13.780  0.1661E+02  0.7265E+02
    -13.648  0.1792E+02  0.7501E+02
    -13.517  0.1728E+01  0.7523E+02
    -13.385  0.2436E+01  0.7556E+02
    -13.253  0.5180E+00  0.7562E+02
    -13.122  0.1136E+02  0.7712E+02
    -12.990  0.1387E+02  0.7895E+02
    -12.858  0.2036E+02  0.8163E+02
    -12.727  0.1136E+01  0.8178E+02
    -12.595  0.4840E+01  0.8242E+02
    -12.463  0.1759E+02  0.8473E+02
    -12.332  0.1087E+02  0.8616E+02
    -12.200  0.3591E+01  0.8664E+02
    -12.068  0.3368E+01  0.8708E+02
    -11.936  0.1197E+02  0.8866E+02
    -11.805  0.3602E+01  0.8913E+02
    -11.673  0.1617E+02  0.9126E+02
    -11.541  0.1768E+02  0.9359E+02
    -11.410  0.1339E+02  0.9535E+02
    -11.278  0.8611E+01  0.9649E+02
    -11.146  0.5668E+01  0.9723E+02
    -11.015  0.7547E+01  0.9823E+02
    -10.883  0.1292E+02  0.9993E+02
    -10.751  0.1707E+02  0.1022E+03
    -10.619  0.2033E+01  0.1024E+03
    -10.488  0.2055E+02  0.1051E+03
    -10.356  0.3833E+01  0.1057E+03
    -10.224  0.2484E+02  0.1089E+03
    -10.093  0.2522E+02  0.1122E+03
     -9.961  0.1833E+02  0.1147E+03
     -9.829  0.1500E+02  0.1166E+03
     -9.698  0.1726E+02  0.1189E+03
     -9.566  0.2780E+02  0.1226E+03
     -9.434  0.2065E+02  0.1253E+03
     -9.302  0.2758E+02  0.1289E+03
     -9.171  0.2362E+02  0.1320E+03
     -9.039  0.2838E+02  0.1358E+03
     -8.907  0.2059E+02  0.1385E+03
     -8.776  0.1693E+02  0.1407E+03
     -8.644  0.2344E+02  0.1438E+03
     -8.512  0.1741E+02  0.1461E+03
     -8.381  0.1665E+02  0.1483E+03
     -8.249  0.1499E+02  0.1503E+03
     -8.117  0.1665E+02  0.1524E+03
     -7.985  0.2806E+02  0.1561E+03
     -7.854  0.1634E+02  0.1583E+03
     -7.722  0.1620E+02  0.1604E+03
     -7.590  0.8075E+01  0.1615E+03
     -7.459  0.2181E+01  0.1618E+03
     -7.327  0.1811E+02  0.1642E+03
     -7.195  0.3227E+02  0.1684E+03
     -7.064  0.1525E+02  0.1704E+03
     -6.932  0.4668E+01  0.1710E+03
     -6.800  0.1904E+02  0.1735E+03
     -6.668  0.1267E+02  0.1752E+03
     -6.537  0.1606E+02  0.1773E+03
     -6.405  0.7170E+01  0.1783E+03
     -6.273  0.1260E+02  0.1799E+03
     -6.142  0.1533E+02  0.1820E+03
     -6.010  0.1359E+02  0.1837E+03
     -5.878  0.2031E+02  0.1864E+03
     -5.747  0.7775E+01  0.1874E+03
     -5.615  0.1366E+02  0.1892E+03
     -5.483  0.3243E+01  0.1897E+03
     -5.351  0.7892E+01  0.1907E+03
     -5.220  0.8561E+01  0.1918E+03
     -5.088  0.1200E+02  0.1934E+03
     -4.956  0.1840E+02  0.1958E+03
     -4.825  0.1485E+02  0.1978E+03
     -4.693  0.3183E+01  0.1982E+03
     -4.561  0.7723E-01  0.1982E+03
     -4.430  0.4779E-04  0.1982E+03
     -4.298  0.3195E+01  0.1986E+03
     -4.166  0.1739E+02  0.2009E+03
     -4.035  0.4721E+01  0.2016E+03
     -3.903  0.7059E-03  0.2016E+03
     -3.771  0.4674E+00  0.2016E+03
     -3.639  0.2893E+01  0.2020E+03
     -3.508  0.2930E+00  0.2020E+03
     -3.376  0.4392E+01  0.2026E+03
     -3.244  0.1229E+02  0.2042E+03
     -3.113  0.1085E+02  0.2057E+03
     -2.981  0.2615E+01  0.2060E+03
     -2.849  0.2524E+01  0.2063E+03
     -2.718  0.9152E+01  0.2075E+03
     -2.586  0.8254E-01  0.2076E+03
     -2.454  0.9415E-01  0.2076E+03
     -2.322  0.3170E+01  0.2080E+03
     -2.191  0.2851E+01  0.2084E+03
     -2.059  0.6344E+00  0.2084E+03
     -1.927  0.6784E-05  0.2084E+03
     -1.796  0.3919E-07  0.2084E+03
     -1.664  0.1954E+00  0.2085E+03
     -1.532  0.9522E+01  0.2097E+03
     -1.401  0.1272E+02  0.2114E+03
     -1.269  0.2872E+01  0.2118E+03
     -1.137  0.1339E-03  0.2118E+03
     -1.005  0.1239E+01  0.2119E+03
     -0.874  0.1139E+02  0.2134E+03
     -0.742  0.2268E+02  0.2164E+03
     -0.610  0.1820E+02  0.2188E+03
     -0.479  0.5312E+01  0.2195E+03
     -0.347  0.2705E+00  0.2196E+03
     -0.215  0.4664E+01  0.2202E+03
     -0.084  0.1124E+02  0.2217E+03
      0.048  0.1040E+02  0.2230E+03
      0.180  0.8222E+00  0.2231E+03
      0.312  0.1635E+02  0.2253E+03
      0.443  0.7378E+01  0.2263E+03
      0.575  0.3432E+01  0.2267E+03
      0.707  0.1121E+02  0.2282E+03
      0.838  0.1676E+02  0.2304E+03
      0.970  0.6161E+01  0.2312E+03
      1.102  0.1111E+02  0.2327E+03
      1.233  0.1474E+02  0.2346E+03
      1.365  0.8600E+01  0.2357E+03
      1.497  0.1488E+02  0.2377E+03
      1.629  0.2287E+02  0.2407E+03
      1.760  0.1579E+02  0.2428E+03
      1.892  0.2728E+02  0.2464E+03
      2.024  0.8369E+01  0.2475E+03
      2.155  0.1614E+02  0.2496E+03
      2.287  0.2621E+02  0.2531E+03
      2.419  0.2879E+02  0.2569E+03
      2.550  0.7109E+01  0.2578E+03
      2.682  0.6308E+01  0.2586E+03
      2.814  0.9199E+01  0.2598E+03
      2.946  0.4959E+01  0.2605E+03
      3.077  0.9268E+01  0.2617E+03
      3.209  0.2781E+01  0.2621E+03
      3.341  0.4487E+01  0.2627E+03
      3.472  0.2523E-01  0.2627E+03
      3.604  0.3297E+01  0.2631E+03
      3.736  0.3450E+01  0.2636E+03
      3.867  0.1108E-02  0.2636E+03
      3.999  0.6384E-06  0.2636E+03
      4.131  0.2962E+00  0.2636E+03
      4.262  0.3048E+01  0.2640E+03
      4.394  0.2998E-01  0.2640E+03
      4.526  0.1841E-08  0.2640E+03
      4.658  0.0000E+00  0.2640E+03
      4.789  0.0000E+00  0.2640E+03
      4.921  0.0000E+00  0.2640E+03
      5.053  0.0000E+00  0.2640E+03
      5.184  0.0000E+00  0.2640E+03
      5.316  0.0000E+00  0.2640E+03
      5.448  0.0000E+00  0.2640E+03
      5.579  0.0000E+00  0.2640E+03
      5.711  0.0000E+00  0.2640E+03
      5.843  0.0000E+00  0.2640E+03
      5.975  0.0000E+00  0.2640E+03
