 vasp.5.4.4.18Apr17-6-g9f103f2a35 (build Aug 13 2022 23:40:43) complex          
  
 executed on             LinuxIFC date 2024.11.10  04:06:07
 running on   48 total cores
 distrk:  each k-point on   48 cores,    1 groups
 distr:  one band on NCORES_PER_BAND=   8 cores,    6 groups


--------------------------------------------------------------------------------------------------------


 INCAR:
 POTCAR:    PAW_PBE C 08Apr2002                   
 POTCAR:    PAW_PBE O 08Apr2002                   
 POTCAR:    PAW_PBE C 08Apr2002                   
   VRHFIN =C: s2p2                                                              
   LEXCH  = PE                                                                  
   EATOM  =   147.1560 eV,   10.8157 Ry                                         
                                                                                
   TITEL  = PAW_PBE C 08Apr2002                                                 
   LULTRA =        F    use ultrasoft PP ?                                      
   IUNSCR =        1    unscreen: 0-lin 1-nonlin 2-no                           
   RPACOR =    1.200    partial core radius                                     
   POMASS =   12.011; ZVAL   =    4.000    mass and valenz                      
   RCORE  =    1.500    outmost cutoff radius                                   
   RWIGS  =    1.630; RWIGS  =    0.863    wigner-seitz radius (au A)           
   ENMAX  =  400.000; ENMIN  =  300.000 eV                                      
   ICORE  =        2    local potential                                         
   LCOR   =        T    correct aug charges                                     
   LPAW   =        T    paw PP                                                  
   EAUG   =  644.873                                                            
   DEXC   =    0.000                                                            
   RMAX   =    1.529    core radius for proj-oper                               
   RAUG   =    1.300    factor for augmentation sphere                          
   RDEP   =    1.501    radius for radial grids                                 
   RDEPT  =    1.300    core radius for aug-charge                              
                                                                                
   Atomic configuration                                                         
    4 entries                                                                   
     n  l   j            E        occ.                                          
     1  0  0.50      -273.3789   2.0000                                         
     2  0  0.50       -13.7508   2.0000                                         
     2  1  0.50        -5.2854   2.0000                                         
     3  2  1.50        -5.4423   0.0000                                         
   Description                                                                  
     l       E           TYP  RCUT    TYP  RCUT                                 
     0    -13.7508458     23  1.200                                             
     0     -8.2022199     23  1.200                                             
     1     -5.2854383     23  1.500                                             
     1     34.0145650     23  1.500                                             
     2     -5.4423304      7  1.500                                             
  local pseudopotential read in
  partial core-charges read in
  partial kinetic energy density read in
  atomic valenz-charges read in
  non local Contribution for L=           0  read in
    real space projection operators read in
  non local Contribution for L=           0  read in
    real space projection operators read in
  non local Contribution for L=           1  read in
    real space projection operators read in
  non local Contribution for L=           1  read in
    real space projection operators read in
    PAW grid and wavefunctions read in
 
   number of l-projection  operators is LMAX  =           4
   number of lm-projection operators is LMMAX =           8
 
 POTCAR:    PAW_PBE O 08Apr2002                   
   VRHFIN =O: s2p4                                                              
   LEXCH  = PE                                                                  
   EATOM  =   432.3788 eV,   31.7789 Ry                                         
                                                                                
   TITEL  = PAW_PBE O 08Apr2002                                                 
   LULTRA =        F    use ultrasoft PP ?                                      
   IUNSCR =        1    unscreen: 0-lin 1-nonlin 2-no                           
   RPACOR =    1.200    partial core radius                                     
   POMASS =   16.000; ZVAL   =    6.000    mass and valenz                      
   RCORE  =    1.520    outmost cutoff radius                                   
   RWIGS  =    1.550; RWIGS  =    0.820    wigner-seitz radius (au A)           
   ENMAX  =  400.000; ENMIN  =  300.000 eV                                      
   ICORE  =        2    local potential                                         
   LCOR   =        T    correct aug charges                                     
   LPAW   =        T    paw PP                                                  
   EAUG   =  605.392                                                            
   DEXC   =    0.000                                                            
   RMAX   =    1.553    core radius for proj-oper                               
   RAUG   =    1.300    factor for augmentation sphere                          
   RDEP   =    1.550    radius for radial grids                                 
   RDEPT  =    1.329    core radius for aug-charge                              
                                                                                
   Atomic configuration                                                         
    4 entries                                                                   
     n  l   j            E        occ.                                          
     1  0  0.50      -514.6923   2.0000                                         
     2  0  0.50       -23.9615   2.0000                                         
     2  1  0.50        -9.0305   4.0000                                         
     3  2  1.50        -9.5241   0.0000                                         
   Description                                                                  
     l       E           TYP  RCUT    TYP  RCUT                                 
     0    -23.9615318     23  1.200                                             
     0     -9.5240782     23  1.200                                             
     1     -9.0304911     23  1.520                                             
     1      8.1634956     23  1.520                                             
     2     -9.5240782      7  1.500                                             
  local pseudopotential read in
  partial core-charges read in
  partial kinetic energy density read in
  kinetic energy density of atom read in
  atomic valenz-charges read in
  non local Contribution for L=           0  read in
    real space projection operators read in
  non local Contribution for L=           0  read in
    real space projection operators read in
  non local Contribution for L=           1  read in
    real space projection operators read in
  non local Contribution for L=           1  read in
    real space projection operators read in
    PAW grid and wavefunctions read in
 
   number of l-projection  operators is LMAX  =           4
   number of lm-projection operators is LMMAX =           8
 

 ----------------------------------------------------------------------------- 
|                                                                             |
|  ADVICE TO THIS USER RUNNING 'VASP/VAMP'   (HEAR YOUR MASTER'S VOICE ...):  |
|                                                                             |
|      You have a (more or less) 'large supercell' and for larger cells       |
|      it might be more efficient to use real space projection opertators     |
|      So try LREAL= Auto  in the INCAR   file.                               |
|      Mind:          For very  accurate calculation you might also keep the  |
|      reciprocal projection scheme          (i.e. LREAL=.FALSE.)             |
|                                                                             |
 ----------------------------------------------------------------------------- 

  PAW_PBE C 08Apr2002                   :
 energy of atom  1       EATOM= -147.1560
 kinetic energy error for atom=    0.0288 (will be added to EATOM!!)
  PAW_PBE O 08Apr2002                   :
 energy of atom  2       EATOM= -432.3788
 kinetic energy error for atom=    0.1156 (will be added to EATOM!!)
 
 
 POSCAR: generated by phonopy                    
  positions in direct lattice
  No initial velocities read in
 exchange correlation table for  LEXCH =        8
   RHO(1)=    0.500       N(1)  =     2000
   RHO(2)=  100.500       N(2)  =     4000

 VTST: version 3.2, (02/03/18)

 CHAIN: initializing optimizer
 
 OPT: Using VASP Dynamics algorithm
 CHAIN: Read ICHAIN            0
 
 POSCAR: generated by phonopy                    
  positions in direct lattice
  No initial velocities read in
 


--------------------------------------------------------------------------------------------------------


 ion  position               nearest neighbor table
   1  0.000  0.000  0.418-  26 1.42  30 1.42  46 1.42
   2  0.200  0.000  0.418-  26 1.42  47 1.42  27 1.43
   3  0.400  0.000  0.418-  27 1.41  28 1.42  48 1.42
   4  0.600  0.000  0.418-  29 1.42  28 1.42  49 1.42
   5  0.800  0.000  0.418-  30 1.42  29 1.42  50 1.42
   6  0.000  0.200  0.418-  31 1.42  35 1.42  26 1.42
   7  0.200  0.200  0.418-  32 1.42  31 1.42  27 1.42
   8  0.400  0.200  0.418-  33 1.42  32 1.42  28 1.42
   9  0.600  0.200  0.418-  34 1.42  33 1.42  29 1.42
  10  0.800  0.200  0.418-  35 1.42  34 1.42  30 1.42
  11  0.000  0.400  0.418-  36 1.42  40 1.42  31 1.42
  12  0.200  0.400  0.418-  37 1.42  36 1.42  32 1.42
  13  0.400  0.400  0.418-  51 1.00  38 1.42  37 1.42  33 1.42
  14  0.600  0.400  0.418-  39 1.42  38 1.42  34 1.42
  15  0.800  0.400  0.418-  40 1.42  39 1.42  35 1.42
  16  0.000  0.600  0.418-  41 1.42  45 1.42  36 1.42
  17  0.200  0.600  0.418-  42 1.42  41 1.42  37 1.42
  18  0.400  0.600  0.418-  43 1.42  42 1.42  38 1.42
  19  0.600  0.600  0.418-  44 1.42  43 1.42  39 1.42
  20  0.800  0.600  0.418-  45 1.42  44 1.42  40 1.42
  21  0.000  0.800  0.418-  46 1.42  50 1.42  41 1.42
  22  0.200  0.800  0.418-  47 1.42  46 1.42  42 1.42
  23  0.400  0.800  0.418-  48 1.42  47 1.42  43 1.42
  24  0.600  0.800  0.418-  49 1.42  48 1.42  44 1.42
  25  0.800  0.800  0.418-  50 1.42  49 1.42  45 1.42
  26  0.067  0.067  0.418-   1 1.42   2 1.42   6 1.42
  27  0.267  0.067  0.418-   3 1.41   7 1.42   2 1.43
  28  0.467  0.067  0.418-   3 1.42   4 1.42   8 1.42
  29  0.667  0.067  0.418-   4 1.42   5 1.42   9 1.42
  30  0.867  0.067  0.418-   5 1.42   1 1.42  10 1.42
  31  0.067  0.267  0.418-   6 1.42   7 1.42  11 1.42
  32  0.267  0.267  0.418-   7 1.42   8 1.42  12 1.42
  33  0.467  0.267  0.418-   8 1.42   9 1.42  13 1.42  51 1.74
  34  0.667  0.267  0.418-   9 1.42  10 1.42  14 1.42
  35  0.867  0.267  0.418-  10 1.42   6 1.42  15 1.42
  36  0.067  0.467  0.418-  11 1.42  12 1.42  16 1.42
  37  0.267  0.467  0.418-  12 1.42  13 1.42  17 1.42  51 1.74
  38  0.467  0.467  0.418-  13 1.42  14 1.42  18 1.42  51 1.74
  39  0.667  0.467  0.418-  14 1.42  15 1.42  19 1.42
  40  0.867  0.467  0.418-  15 1.42  11 1.42  20 1.42
  41  0.067  0.667  0.418-  16 1.42  17 1.42  21 1.42
  42  0.267  0.667  0.418-  17 1.42  18 1.42  22 1.42
  43  0.467  0.667  0.418-  18 1.42  19 1.42  23 1.42
  44  0.667  0.667  0.418-  19 1.42  20 1.42  24 1.42
  45  0.867  0.667  0.418-  20 1.42  16 1.42  25 1.42
  46  0.067  0.867  0.418-  21 1.42  22 1.42   1 1.42
  47  0.267  0.867  0.418-  22 1.42  23 1.42   2 1.42
  48  0.467  0.867  0.418-  23 1.42  24 1.42   3 1.42
  49  0.667  0.867  0.418-  24 1.42  25 1.42   4 1.42
  50  0.867  0.867  0.418-  25 1.42  21 1.42   5 1.42
  51  0.400  0.400  0.468-  13 1.00  38 1.74  37 1.74  33 1.74
 
  LATTYP: Found a hexagonal cell.
 ALAT       =    12.2999994816
 C/A-ratio  =     1.6260163287
  
  Lattice vectors:
  
 A1 = (   6.1499993860, -10.6521122225,   0.0000000000)
 A2 = ( -12.3000001905,   0.0000000000,   0.0000000000)
 A3 = (   0.0000000000,   0.0000000000, -20.0000000000)


Analysis of symmetry for initial positions (statically):
=====================================================================
 Subroutine PRICEL returns:
 Original cell was already a primitive cell.
 

 Routine SETGRP: Setting up the symmetry group for a 
 hexagonal supercell.


 Subroutine GETGRP returns: Found  1 space group operations
 (whereof  1 operations were pure point group operations)
 out of a pool of 24 trial point group operations.


The static configuration has the point symmetry C_1 .


Analysis of symmetry for dynamics (positions and initial velocities):
=====================================================================
 Subroutine PRICEL returns:
 Original cell was already a primitive cell.
 

 Routine SETGRP: Setting up the symmetry group for a 
 hexagonal supercell.


 Subroutine GETGRP returns: Found  1 space group operations
 (whereof  1 operations were pure point group operations)
 out of a pool of 24 trial point group operations.


The dynamic configuration has the point symmetry C_1 .


 Subroutine INISYM returns: Found  1 space group operations
 (whereof  1 operations are pure point group operations),
 and found     1 'primitive' translations

 
 
 KPOINTS: K-POINTS                                

Automatic generation of k-mesh.
Space group operators:
 irot       det(A)        alpha          n_x          n_y          n_z        tau_x        tau_y        tau_z
    1     1.000000     0.000000     1.000000     0.000000     0.000000     0.000000     0.000000     0.000000
 
 Subroutine IBZKPT returns following result:
 ===========================================
 
 Found      5 irreducible k-points:
 
 Following reciprocal coordinates:
            Coordinates               Weight
  0.000000  0.000000  0.000000      1.000000
  0.333333  0.000000  0.000000      2.000000
  0.000000  0.333333  0.000000      2.000000
  0.333333  0.333333  0.000000      2.000000
 -0.333333  0.333333  0.000000      2.000000
 
 Following cartesian coordinates:
            Coordinates               Weight
  0.000000  0.000000  0.000000      1.000000
  0.027100 -0.015646  0.000000      2.000000
  0.000000  0.031293  0.000000      2.000000
  0.027100  0.015646  0.000000      2.000000
 -0.027100  0.046939  0.000000      2.000000
 


--------------------------------------------------------------------------------------------------------




 Dimension of arrays:
   k-points           NKPTS =      5   k-points in BZ     NKDIM =      5   number of bands    NBANDS=    132
   number of dos      NEDOS =    301   number of ions     NIONS =     51
   non local maximal  LDIM  =      4   non local SUM 2l+1 LMDIM =      8
   total plane-waves  NPLWV = 896000
   max r-space proj   IRMAX =      1   max aug-charges    IRDMAX=  35685
   dimension x,y,z NGX =    80 NGY =   80 NGZ =  140
   dimension x,y,z NGXF=   160 NGYF=  160 NGZF=  280
   support grid    NGXF=   320 NGYF=  320 NGZF=  560
   ions per type =              50   1
   NGX,Y,Z   is equivalent  to a cutoff of  10.81, 10.81, 11.64 a.u.
   NGXF,Y,Z  is equivalent  to a cutoff of  21.63, 21.63, 23.27 a.u.

 SYSTEM =                                          
 POSCAR =  generated by phonopy                    

 Startparameter for this run:
   NWRITE =      2    write-flag & timer
   PREC   = accura    normal or accurate (medium, high low for compatibility)
   ISTART =      1    job   : 0-new  1-cont  2-samecut
   ICHARG =      1    charge: 1-file 2-atom 10-const
   ISPIN  =      1    spin polarized calculation?
   LNONCOLLINEAR =      F non collinear calculations
   LSORBIT =      F    spin-orbit coupling
   INIWAV =      1    electr: 0-lowe 1-rand  2-diag
   LASPH  =      F    aspherical Exc in radial PAW
   METAGGA=      F    non-selfconsistent MetaGGA calc.

 Electronic Relaxation 1
   ENCUT  =  400.0 eV  29.40 Ry    5.42 a.u.  20.06 20.06 32.61*2*pi/ulx,y,z
   ENINI  =  400.0     initial cutoff
   ENAUG  =  644.9 eV  augmentation charge cutoff
   NELM   =    300;   NELMIN=  2; NELMDL=  0     # of ELM steps 
   EDIFF  = 0.1E-04   stopping-criterion for ELM
   LREAL  =      F    real-space projection
   NLSPLINE    = F    spline interpolate recip. space projectors
   LCOMPAT=      F    compatible to vasp.4.4
   GGA_COMPAT  = T    GGA compatible to vasp.4.4-vasp.4.6
   LMAXPAW     = -100 max onsite density
   LMAXMIX     =    2 max onsite mixed and CHGCAR
   VOSKOWN=      0    Vosko Wilk Nusair interpolation
   ROPT   =    0.00000   0.00000
 Ionic relaxation
   EDIFFG = -.1E-02   stopping-criterion for IOM
   NSW    =      1    number of steps for IOM
   NBLOCK =      1;   KBLOCK =      1    inner block; outer block 
   IBRION =     -1    ionic relax: 0-MD 1-quasi-New 2-CG
   NFREE  =      0    steps in history (QN), initial steepest desc. (CG)
   ISIF   =      2    stress and relaxation
   IWAVPR =     10    prediction:  0-non 1-charg 2-wave 3-comb
   ISYM   =      2    0-nonsym 1-usesym 2-fastsym
   LCORR  =      T    Harris-Foulkes like correction to forces

   POTIM  = 0.5000    time-step for ionic-motion
   TEIN   =    0.0    initial temperature
   TEBEG  =    0.0;   TEEND  =   0.0 temperature during run
   SMASS  =  -3.00    Nose mass-parameter (am)
   estimated Nose-frequenzy (Omega)   =  0.10E-29 period in steps =****** mass=  -0.346E-26a.u.
   SCALEE = 1.0000    scale energy and forces
   NPACO  =    256;   APACO  = 16.0  distance and # of slots for P.C.
   PSTRESS=    0.0 pullay stress

  Mass of Ions in am
   POMASS =  12.01 16.00
  Ionic Valenz
   ZVAL   =   4.00  6.00
  Atomic Wigner-Seitz radii
   RWIGS  =  -1.00 -1.00
  virtual crystal weights 
   VCA    =   1.00  1.00
   NELECT =     206.0000    total number of electrons
   NUPDOWN=      -1.0000    fix difference up-down

 DOS related values:
   EMIN   =  10.00;   EMAX   =-10.00  energy-range for DOS
   EFERMI =   0.00
   ISMEAR =     0;   SIGMA  =   0.05  broadening in eV -4-tet -1-fermi 0-gaus

 Electronic relaxation 2 (details)
   IALGO  =     68    algorithm
   LDIAG  =      T    sub-space diagonalisation (order eigenvalues)
   LSUBROT=      F    optimize rotation matrix (better conditioning)
   TURBO    =      0    0=normal 1=particle mesh
   IRESTART =      0    0=no restart 2=restart with 2 vectors
   NREBOOT  =      0    no. of reboots
   NMIN     =      0    reboot dimension
   EREF     =   0.00    reference energy to select bands
   IMIX   =      4    mixing-type and parameters
     AMIX     =   0.40;   BMIX     =  1.00
     AMIX_MAG =   1.60;   BMIX_MAG =  1.00
     AMIN     =   0.10
     WC   =   100.;   INIMIX=   1;  MIXPRE=   1;  MAXMIX= -45

 Intra band minimization:
   WEIMIN = 0.0000     energy-eigenvalue tresh-hold
   EBREAK =  0.19E-07  absolut break condition
   DEPER  =   0.30     relativ break condition  

   TIME   =   0.40     timestep for ELM

  volume/ion in A,a.u.               =      51.38       346.73
  Fermi-wavevector in a.u.,A,eV,Ry     =   0.701305  1.325274  6.691736  0.491829
  Thomas-Fermi vector in A             =   1.785695
 
 Write flags
   LWAVE        =      F    write WAVECAR
   LDOWNSAMPLE  =      F    k-point downsampling of WAVECAR
   LCHARG       =      F    write CHGCAR
   LVTOT        =      F    write LOCPOT, total local potential
   LVHAR        =      F    write LOCPOT, Hartree potential only
   LELF         =      F    write electronic localiz. function (ELF)
   LORBIT       =      0    0 simple, 1 ext, 2 COOP (PROOUT), +10 PAW based schemes


 Dipole corrections
   LMONO  =      F    monopole corrections only (constant potential shift)
   LDIPOL =      F    correct potential (dipole corrections)
   IDIPOL =      0    1-x, 2-y, 3-z, 4-all directions 
   EPSILON=  1.0000000 bulk dielectric constant

 Exchange correlation treatment:
   GGA     =    --    GGA type
   LEXCH   =     8    internal setting for exchange type
   VOSKOWN=      0    Vosko Wilk Nusair interpolation
   LHFCALC =     F    Hartree Fock is set to
   LHFONE  =     F    Hartree Fock one center treatment
   AEXX    =    0.0000 exact exchange contribution

 Linear response parameters
   LEPSILON=     F    determine dielectric tensor
   LRPA    =     F    only Hartree local field effects (RPA)
   LNABLA  =     F    use nabla operator in PAW spheres
   LVEL    =     F    velocity operator in full k-point grid
   LINTERFAST=   F  fast interpolation
   KINTER  =     0    interpolate to denser k-point grid
   CSHIFT  =0.1000    complex shift for real part using Kramers Kronig
   OMEGAMAX=  -1.0    maximum frequency
   DEG_THRESHOLD= 0.2000000E-02 threshold for treating states as degnerate
   RTIME   =   -0.100 relaxation time in fs
  (WPLASMAI=    0.000 imaginary part of plasma frequency in eV, 0.658/RTIME)
   DFIELD  = 0.0000000 0.0000000 0.0000000 field for delta impulse in time
 
 Orbital magnetization related:
   ORBITALMAG=     F  switch on orbital magnetization
   LCHIMAG   =     F  perturbation theory with respect to B field
   DQ        =  0.001000  dq finite difference perturbation B field
   LLRAUG    =     F  two centre corrections for induced B field



--------------------------------------------------------------------------------------------------------


 Static calculation
 charge density and potential will be updated during run
 non-spin polarized calculation
 RMM-DIIS sequential band-by-band and
  variant of blocked Davidson during initial phase
 perform sub-space diagonalisation
    before iterative eigenvector-optimisation
 modified Broyden-mixing scheme, WC =      100.0
 initial mixing is a Kerker type mixing with AMIX =  0.4000 and BMIX =      1.0000
 Hartree-type preconditioning will be used
 using additional bands           29
 reciprocal scheme for non local part
 use partial core corrections
 calculate Harris-corrections to forces 
   (improved forces if not selfconsistent)
 use gradient corrections 
 use of overlap-Matrix (Vanderbilt PP)
 Gauss-broadening in eV      SIGMA  =   0.05


--------------------------------------------------------------------------------------------------------


  energy-cutoff  :      400.00
  volume of cell :     2620.42
      direct lattice vectors                 reciprocal lattice vectors
    12.300000191  0.000000000  0.000000000     0.081300812 -0.046939053  0.000000000
     6.150000804 10.652112223  0.000000000     0.000000000  0.093878095  0.000000000
     0.000000000  0.000000000 20.000000000     0.000000000  0.000000000  0.050000000

  length of vectors
    12.300000191 12.300000191 20.000000000     0.093878095  0.093878095  0.050000000


 
 old parameters found on file WAVECAR:
  energy-cutoff  :      400.00
  volume of cell :     2620.42
      direct lattice vectors                 reciprocal lattice vectors
    12.300000191  0.000000000  0.000000000     0.081300812 -0.046939053  0.000000000
     6.150000804 10.652112223  0.000000000     0.000000000  0.093878095  0.000000000
     0.000000000  0.000000000 20.000000000     0.000000000  0.000000000  0.050000000

  length of vectors

 
 k-points in units of 2pi/SCALE and weight: K-POINTS                                
   0.00000000  0.00000000  0.00000000       0.111
   0.02710027 -0.01564635  0.00000000       0.222
   0.00000000  0.03129270  0.00000000       0.222
   0.02710027  0.01564635  0.00000000       0.222
  -0.02710027  0.04693905  0.00000000       0.222
 
 k-points in reciprocal lattice and weights: K-POINTS                                
   0.00000000  0.00000000  0.00000000       0.111
   0.33333333  0.00000000  0.00000000       0.222
   0.00000000  0.33333333  0.00000000       0.222
   0.33333333  0.33333333  0.00000000       0.222
  -0.33333333  0.33333333  0.00000000       0.222
 
 position of ions in fractional coordinates (direct lattice) 
   0.00000000  0.00000000  0.41799748
   0.20000000  0.00000000  0.41799748
   0.40000000  0.00000000  0.41799748
   0.60000000  0.00000000  0.41799748
   0.80000000  0.00000000  0.41799748
   0.00000000  0.20000000  0.41799748
   0.20000000  0.20000000  0.41799748
   0.40000000  0.20000000  0.41799748
   0.60000000  0.20000000  0.41799748
   0.80000000  0.20000000  0.41799748
   0.00000000  0.40000000  0.41799748
   0.20000000  0.40000000  0.41799748
   0.40000000  0.40000000  0.41799748
   0.60000000  0.40000000  0.41799748
   0.80000000  0.40000000  0.41799748
   0.00000000  0.60000000  0.41799748
   0.20000000  0.60000000  0.41799748
   0.40000000  0.60000000  0.41799748
   0.60000000  0.60000000  0.41799748
   0.80000000  0.60000000  0.41799748
   0.00000000  0.80000000  0.41799748
   0.20000000  0.80000000  0.41799748
   0.40000000  0.80000000  0.41799748
   0.60000000  0.80000000  0.41799748
   0.80000000  0.80000000  0.41799748
   0.06666667  0.06666660  0.41800609
   0.26747968  0.06666660  0.41800609
   0.46666667  0.06666660  0.41800609
   0.66666667  0.06666660  0.41800609
   0.86666667  0.06666660  0.41800609
   0.06666667  0.26666660  0.41800609
   0.26666667  0.26666660  0.41800609
   0.46666667  0.26666660  0.41800609
   0.66666667  0.26666660  0.41800609
   0.86666667  0.26666660  0.41800609
   0.06666667  0.46666660  0.41800609
   0.26666667  0.46666660  0.41800609
   0.46666667  0.46666660  0.41800609
   0.66666667  0.46666660  0.41800609
   0.86666667  0.46666660  0.41800609
   0.06666667  0.66666660  0.41800609
   0.26666667  0.66666660  0.41800609
   0.46666667  0.66666660  0.41800609
   0.66666667  0.66666660  0.41800609
   0.86666667  0.66666660  0.41800609
   0.06666667  0.86666660  0.41800609
   0.26666667  0.86666660  0.41800609
   0.46666667  0.86666660  0.41800609
   0.66666667  0.86666660  0.41800609
   0.86666667  0.86666660  0.41800609
   0.40000000  0.40000000  0.46800609
 
 position of ions in cartesian coordinates  (Angst):
   0.00000000  0.00000000  8.35994958
   2.46000004  0.00000000  8.35994958
   4.92000008  0.00000000  8.35994958
   7.38000011  0.00000000  8.35994958
   9.84000015  0.00000000  8.35994958
   1.23000016  2.13042244  8.35994958
   3.69000020  2.13042244  8.35994958
   6.15000024  2.13042244  8.35994958
   8.61000028  2.13042244  8.35994958
  11.07000031  2.13042244  8.35994958
   2.46000032  4.26084489  8.35994958
   4.92000036  4.26084489  8.35994958
   7.38000040  4.26084489  8.35994958
   9.84000044  4.26084489  8.35994958
  12.30000047  4.26084489  8.35994958
   3.69000048  6.39126733  8.35994958
   6.15000052  6.39126733  8.35994958
   8.61000056  6.39126733  8.35994958
  11.07000060  6.39126733  8.35994958
  13.53000064  6.39126733  8.35994958
   4.92000064  8.52168978  8.35994958
   7.38000068  8.52168978  8.35994958
   9.84000072  8.52168978  8.35994958
  12.30000076  8.52168978  8.35994958
  14.76000080  8.52168978  8.35994958
   1.22999970  0.71014014  8.36012184
   3.69999974  0.71014014  8.36012184
   6.14999977  0.71014014  8.36012184
   8.60999981  0.71014014  8.36012184
  11.06999985  0.71014014  8.36012184
   2.45999986  2.84056258  8.36012184
   4.91999990  2.84056258  8.36012184
   7.37999994  2.84056258  8.36012184
   9.83999997  2.84056258  8.36012184
  12.30000001  2.84056258  8.36012184
   3.69000002  4.97098503  8.36012184
   6.15000006  4.97098503  8.36012184
   8.61000010  4.97098503  8.36012184
  11.07000013  4.97098503  8.36012184
  13.53000017  4.97098503  8.36012184
   4.92000018  7.10140747  8.36012184
   7.38000022  7.10140747  8.36012184
   9.84000026  7.10140747  8.36012184
  12.30000030  7.10140747  8.36012184
  14.76000033  7.10140747  8.36012184
   6.15000034  9.23182991  8.36012184
   8.61000038  9.23182991  8.36012184
  11.07000042  9.23182991  8.36012184
  13.53000046  9.23182991  8.36012184
  15.99000049  9.23182991  8.36012184
   7.38000040  4.26084489  9.36012184
 


--------------------------------------------------------------------------------------------------------


 k-point  1 :   0.0000 0.0000 0.0000  plane waves:   47639
 k-point  2 :   0.3333 0.0000 0.0000  plane waves:   47601
 k-point  3 :   0.0000 0.3333 0.0000  plane waves:   47601
 k-point  4 :   0.3333 0.3333 0.0000  plane waves:   47601
 k-point  5 :  -0.3333 0.3333 0.0000  plane waves:   47598

 maximum and minimum number of plane-waves per node :      5975     5928

 maximum number of plane-waves:     47639
 maximum index in each direction: 
   IXMAX=   20   IYMAX=   20   IZMAX=   32
   IXMIN=  -20   IYMIN=  -20   IZMIN=  -32


 parallel 3D FFT for wavefunctions:
    minimum data exchange during FFTs selected (reduces bandwidth)
 parallel 3D FFT for charge:
    minimum data exchange during FFTs selected (reduces bandwidth)


 total amount of memory used by VASP MPI-rank0    90113. kBytes
=======================================================================

   base      :      30000. kBytes
   nonl-proj :       8674. kBytes
   fftplans  :      26248. kBytes
   grid      :      14579. kBytes
   one-center:         21. kBytes
   wavefun   :      10591. kBytes
 
     INWAV:  cpu time    0.8380: real time    0.8385
 Broyden mixing: mesh for mixing (old mesh)
   NGX = 41   NGY = 41   NGZ = 65
  (NGX  =160   NGY  =160   NGZ  =280)
  gives a total of 109265 points

 initial charge density was supplied:
 number of electron     206.0000000 magnetization 
 keeping initial charge density in first step


--------------------------------------------------------------------------------------------------------


 Maximum index for augmentation-charges         1119 (set IRDMAX)


--------------------------------------------------------------------------------------------------------


 First call to EWALD:  gamma=   0.129
 Maximum number of real-space cells 3x 3x 2
 Maximum number of reciprocal cells 3x 3x 4

    FEWALD:  cpu time    0.0018: real time    0.0031


--------------------------------------- Iteration      1(   1)  ---------------------------------------


    POTLOK:  cpu time    0.1058: real time    0.1081
    SETDIJ:  cpu time    0.0824: real time    0.0826
     EDDAV:  cpu time    4.0778: real time    4.1167
       DOS:  cpu time    0.0004: real time    0.0004
    CHARGE:  cpu time    0.3852: real time    0.3891
    MIXING:  cpu time    0.0045: real time    0.0047
    --------------------------------------------
      LOOP:  cpu time    4.6563: real time    4.7016

 eigenvalue-minimisations  :  1356
 total energy-change (2. order) :-0.4532944E+03  (-0.2841555E+02)
 number of electron     206.0000000 magnetization 
 augmentation part        5.5094912 magnetization 

 Broyden mixing:
  rms(total) = 0.49815E-01    rms(broyden)= 0.49784E-01
  rms(prec ) = 0.51282E-01
  weight for this iteration     100.00

 Free energy of the ion-electron system (eV)
  ---------------------------------------------------
  alpha Z        PSCENC =        82.54348252
  Ewald energy   TEWEN  =     34516.60265062
  -Hartree energ DENC   =    -41034.90781105
  -exchange      EXHF   =         0.00000000
  -V(xc)+E(xc)   XCENC  =       721.38012395
  PAW double counting   =     22781.19595426   -22817.52509957
  entropy T*S    EENTRO =        -0.00052227
  eigenvalues    EBANDS =     -2491.20756469
  atomic energy  EATOM  =      7788.62438962
  Solvation  Ediel_sol  =         0.00000000
  ---------------------------------------------------
  free energy    TOTEN  =      -453.29439660 eV

  energy without entropy =     -453.29387434  energy(sigma->0) =     -453.29413547


--------------------------------------------------------------------------------------------------------




--------------------------------------- Iteration      1(   2)  ---------------------------------------


    POTLOK:  cpu time    0.0976: real time    0.1010
    SETDIJ:  cpu time    0.0793: real time    0.0815
    EDDIAG:  cpu time    0.8738: real time    0.8817
  RMM-DIIS:  cpu time    3.7065: real time    3.7408
    ORTHCH:  cpu time    0.0397: real time    0.0417
       DOS:  cpu time    0.0004: real time    0.0004
    CHARGE:  cpu time    0.3800: real time    0.3833
    MIXING:  cpu time    0.0078: real time    0.0079
    --------------------------------------------
      LOOP:  cpu time    5.1851: real time    5.2383

 eigenvalue-minimisations  :  1418
 total energy-change (2. order) :-0.9877213E+00  (-0.9901722E+00)
 number of electron     206.0000000 magnetization 
 augmentation part        5.5409388 magnetization 

 Broyden mixing:
  rms(total) = 0.20575E-01    rms(broyden)= 0.20519E-01
  rms(prec ) = 0.21955E-01
  weight for this iteration     100.00

 eigenvalues of (default mixing * dielectric matrix)
  average eigenvalue GAMMA=   0.7392
  0.7392

 Free energy of the ion-electron system (eV)
  ---------------------------------------------------
  alpha Z        PSCENC =        82.54348252
  Ewald energy   TEWEN  =     34516.60265062
  -Hartree energ DENC   =    -41032.38528214
  -exchange      EXHF   =         0.00000000
  -V(xc)+E(xc)   XCENC  =       721.27311085
  PAW double counting   =     22842.34480900   -22878.62275291
  entropy T*S    EENTRO =        -0.00009468
  eigenvalues    EBANDS =     -2494.66243081
  atomic energy  EATOM  =      7788.62438962
  Solvation  Ediel_sol  =         0.00000000
  ---------------------------------------------------
  free energy    TOTEN  =      -454.28211792 eV

  energy without entropy =     -454.28202325  energy(sigma->0) =     -454.28207059


--------------------------------------------------------------------------------------------------------




--------------------------------------- Iteration      1(   3)  ---------------------------------------


    POTLOK:  cpu time    0.1005: real time    0.1042
    SETDIJ:  cpu time    0.0793: real time    0.0816
    EDDIAG:  cpu time    0.8814: real time    0.8911
  RMM-DIIS:  cpu time    4.1134: real time    4.1528
    ORTHCH:  cpu time    0.0413: real time    0.0416
       DOS:  cpu time    0.0004: real time    0.0004
    CHARGE:  cpu time    0.3840: real time    0.3879
    MIXING:  cpu time    0.0043: real time    0.0043
    --------------------------------------------
      LOOP:  cpu time    5.6044: real time    5.6638

 eigenvalue-minimisations  :  1579
 total energy-change (2. order) :-0.5224504E-01  (-0.5850362E-01)
 number of electron     206.0000000 magnetization 
 augmentation part        5.5434363 magnetization 

 Broyden mixing:
  rms(total) = 0.15487E-01    rms(broyden)= 0.15473E-01
  rms(prec ) = 0.16045E-01
  weight for this iteration     100.00

 eigenvalues of (default mixing * dielectric matrix)
  average eigenvalue GAMMA=   0.6813
  0.6813  0.6813

 Free energy of the ion-electron system (eV)
  ---------------------------------------------------
  alpha Z        PSCENC =        82.54348252
  Ewald energy   TEWEN  =     34516.60265062
  -Hartree energ DENC   =    -41033.08067829
  -exchange      EXHF   =         0.00000000
  -V(xc)+E(xc)   XCENC  =       721.30553708
  PAW double counting   =     22831.09774740   -22867.39042987
  entropy T*S    EENTRO =        -0.00012251
  eigenvalues    EBANDS =     -2494.03693953
  atomic energy  EATOM  =      7788.62438962
  Solvation  Ediel_sol  =         0.00000000
  ---------------------------------------------------
  free energy    TOTEN  =      -454.33436296 eV

  energy without entropy =     -454.33424045  energy(sigma->0) =     -454.33430170


--------------------------------------------------------------------------------------------------------




--------------------------------------- Iteration      1(   4)  ---------------------------------------


    POTLOK:  cpu time    0.0967: real time    0.0985
    SETDIJ:  cpu time    0.0793: real time    0.0808
    EDDIAG:  cpu time    0.8716: real time    0.8800
  RMM-DIIS:  cpu time    4.1064: real time    4.1456
    ORTHCH:  cpu time    0.0410: real time    0.0415
       DOS:  cpu time    0.0005: real time    0.0005
    CHARGE:  cpu time    0.3850: real time    0.3883
    MIXING:  cpu time    0.0052: real time    0.0052
    --------------------------------------------
      LOOP:  cpu time    5.5858: real time    5.6406

 eigenvalue-minimisations  :  1578
 total energy-change (2. order) :-0.3883087E-02  (-0.4076075E-02)
 number of electron     206.0000000 magnetization 
 augmentation part        5.5459713 magnetization 

 Broyden mixing:
  rms(total) = 0.15290E-01    rms(broyden)= 0.15289E-01
  rms(prec ) = 0.15769E-01
  weight for this iteration     100.00

 eigenvalues of (default mixing * dielectric matrix)
  average eigenvalue GAMMA=   0.9878
  1.2064  1.2064  0.5505

 Free energy of the ion-electron system (eV)
  ---------------------------------------------------
  alpha Z        PSCENC =        82.54348252
  Ewald energy   TEWEN  =     34516.60265062
  -Hartree energ DENC   =    -41033.41902579
  -exchange      EXHF   =         0.00000000
  -V(xc)+E(xc)   XCENC  =       721.32072123
  PAW double counting   =     22822.35379186   -22858.65411175
  entropy T*S    EENTRO =        -0.00010628
  eigenvalues    EBANDS =     -2493.71003807
  atomic energy  EATOM  =      7788.62438962
  Solvation  Ediel_sol  =         0.00000000
  ---------------------------------------------------
  free energy    TOTEN  =      -454.33824605 eV

  energy without entropy =     -454.33813976  energy(sigma->0) =     -454.33819290


--------------------------------------------------------------------------------------------------------




--------------------------------------- Iteration      1(   5)  ---------------------------------------


    POTLOK:  cpu time    0.0974: real time    0.0985
    SETDIJ:  cpu time    0.0787: real time    0.0800
    EDDIAG:  cpu time    0.8699: real time    0.8779
  RMM-DIIS:  cpu time    3.9613: real time    3.9992
    ORTHCH:  cpu time    0.0412: real time    0.0415
       DOS:  cpu time    0.0003: real time    0.0003
    CHARGE:  cpu time    0.3865: real time    0.3904
    MIXING:  cpu time    0.0050: real time    0.0050
    --------------------------------------------
      LOOP:  cpu time    5.4402: real time    5.4928

 eigenvalue-minimisations  :  1514
 total energy-change (2. order) :-0.1000343E-03  (-0.3140536E-03)
 number of electron     206.0000000 magnetization 
 augmentation part        5.5449396 magnetization 

 Broyden mixing:
  rms(total) = 0.61053E-02    rms(broyden)= 0.61044E-02
  rms(prec ) = 0.62654E-02
  weight for this iteration     100.00

 eigenvalues of (default mixing * dielectric matrix)
  average eigenvalue GAMMA=   1.1593
  1.5188  1.5188  0.5655  1.0343

 Free energy of the ion-electron system (eV)
  ---------------------------------------------------
  alpha Z        PSCENC =        82.54348252
  Ewald energy   TEWEN  =     34516.60265062
  -Hartree energ DENC   =    -41034.33322682
  -exchange      EXHF   =         0.00000000
  -V(xc)+E(xc)   XCENC  =       721.35896749
  PAW double counting   =     22795.00594456   -22831.32605692
  entropy T*S    EENTRO =        -0.00011023
  eigenvalues    EBANDS =     -2492.81438691
  atomic energy  EATOM  =      7788.62438962
  Solvation  Ediel_sol  =         0.00000000
  ---------------------------------------------------
  free energy    TOTEN  =      -454.33834608 eV

  energy without entropy =     -454.33823585  energy(sigma->0) =     -454.33829096


--------------------------------------------------------------------------------------------------------




--------------------------------------- Iteration      1(   6)  ---------------------------------------


    POTLOK:  cpu time    0.0978: real time    0.1006
    SETDIJ:  cpu time    0.0788: real time    0.0818
    EDDIAG:  cpu time    0.8743: real time    0.8826
  RMM-DIIS:  cpu time    3.9710: real time    4.0087
    ORTHCH:  cpu time    0.0412: real time    0.0415
       DOS:  cpu time    0.0004: real time    0.0004
    CHARGE:  cpu time    0.3849: real time    0.3886
    MIXING:  cpu time    0.0046: real time    0.0046
    --------------------------------------------
      LOOP:  cpu time    5.4528: real time    5.5088

 eigenvalue-minimisations  :  1533
 total energy-change (2. order) :-0.2607053E-04  (-0.4836778E-04)
 number of electron     206.0000000 magnetization 
 augmentation part        5.5443255 magnetization 

 Broyden mixing:
  rms(total) = 0.15073E-02    rms(broyden)= 0.15055E-02
  rms(prec ) = 0.15689E-02
  weight for this iteration     100.00

 eigenvalues of (default mixing * dielectric matrix)
  average eigenvalue GAMMA=   1.2174
  2.1575  1.2093  1.2093  0.9461  0.5646

 Free energy of the ion-electron system (eV)
  ---------------------------------------------------
  alpha Z        PSCENC =        82.54348252
  Ewald energy   TEWEN  =     34516.60265062
  -Hartree energ DENC   =    -41034.98769463
  -exchange      EXHF   =         0.00000000
  -V(xc)+E(xc)   XCENC  =       721.38625271
  PAW double counting   =     22775.49240410   -22811.82569775
  entropy T*S    EENTRO =        -0.00011151
  eigenvalues    EBANDS =     -2492.17404783
  atomic energy  EATOM  =      7788.62438962
  Solvation  Ediel_sol  =         0.00000000
  ---------------------------------------------------
  free energy    TOTEN  =      -454.33837215 eV

  energy without entropy =     -454.33826065  energy(sigma->0) =     -454.33831640


--------------------------------------------------------------------------------------------------------




--------------------------------------- Iteration      1(   7)  ---------------------------------------


    POTLOK:  cpu time    0.0976: real time    0.0986
    SETDIJ:  cpu time    0.0786: real time    0.0798
    EDDIAG:  cpu time    0.8878: real time    0.8960
  RMM-DIIS:  cpu time    2.9061: real time    2.9369
    ORTHCH:  cpu time    0.0415: real time    0.0418
       DOS:  cpu time    0.0004: real time    0.0004
    --------------------------------------------
      LOOP:  cpu time    4.0119: real time    4.0536

 eigenvalue-minimisations  :  1034
 total energy-change (2. order) :-0.7015668E-05  (-0.2191817E-05)
 number of electron     206.0000000 magnetization 
 augmentation part        5.5443255 magnetization 

 Free energy of the ion-electron system (eV)
  ---------------------------------------------------
  alpha Z        PSCENC =        82.54348252
  Ewald energy   TEWEN  =     34516.60265062
  -Hartree energ DENC   =    -41034.99826646
  -exchange      EXHF   =         0.00000000
  -V(xc)+E(xc)   XCENC  =       721.38623479
  PAW double counting   =     22776.83461124   -22813.16718583
  entropy T*S    EENTRO =        -0.00011238
  eigenvalues    EBANDS =     -2492.16418328
  atomic energy  EATOM  =      7788.62438962
  Solvation  Ediel_sol  =         0.00000000
  ---------------------------------------------------
  free energy    TOTEN  =      -454.33837917 eV

  energy without entropy =     -454.33826678  energy(sigma->0) =     -454.33832297


--------------------------------------------------------------------------------------------------------




 average (electrostatic) potential at core
  the test charge radii are     0.6991  0.7215
  (the norm of the test charge is              1.0000)
       1 -58.2601       2 -58.2602       3 -58.2020       4 -58.0569       5 -58.2031
       6 -58.2596       7 -58.2750       8 -58.1332       9 -58.1318      10 -58.2750
      11 -58.2044      12 -58.1307      13 -60.6848      14 -58.1322      15 -58.2032
      16 -58.0575      17 -58.1311      18 -58.1317      19 -58.0582      20 -58.0653
      21 -58.2026      22 -58.2739      23 -58.2024      24 -58.0667      25 -58.0652
      26 -58.3815      27 -58.2918      28 -58.2204      29 -58.2205      30 -58.2921
      31 -58.2948      32 -58.3111      33 -58.8109      34 -58.3134      35 -58.2915
      36 -58.2208      37 -58.8092      38 -58.8105      39 -58.2213      40 -58.2231
      41 -58.2211      42 -58.3133      43 -58.2207      44 -58.1640      45 -58.1637
      46 -58.2913      47 -58.2902      48 -58.2253      49 -58.1646      50 -58.2228
      51 -81.5734
 
 
 
 E-fermi :  -3.0163     XC(G=0):  -2.2105     alpha+bet : -1.9409


 k-point     1 :       0.0000    0.0000    0.0000
  band No.  band energies     occupation 
      1     -31.7390      2.00000
      2     -22.2704      2.00000
      3     -21.5049      2.00000
      4     -21.5021      2.00000
      5     -21.3977      2.00000
      6     -21.3942      2.00000
      7     -21.3893      2.00000
      8     -20.8728      2.00000
      9     -19.8766      2.00000
     10     -19.8738      2.00000
     11     -19.5500      2.00000
     12     -19.5492      2.00000
     13     -19.5422      2.00000
     14     -19.1928      2.00000
     15     -18.9033      2.00000
     16     -18.8941      2.00000
     17     -18.6458      2.00000
     18     -18.6432      2.00000
     19     -18.6393      2.00000
     20     -17.8843      2.00000
     21     -17.0229      2.00000
     22     -17.0196      2.00000
     23     -16.4808      2.00000
     24     -16.4594      2.00000
     25     -16.4521      2.00000
     26     -16.0486      2.00000
     27     -15.9972      2.00000
     28     -15.9961      2.00000
     29     -15.4999      2.00000
     30     -15.4975      2.00000
     31     -15.4920      2.00000
     32     -15.0894      2.00000
     33     -14.6315      2.00000
     34     -14.6263      2.00000
     35     -14.1513      2.00000
     36     -14.1453      2.00000
     37     -14.1394      2.00000
     38     -13.9656      2.00000
     39     -12.9940      2.00000
     40     -12.9912      2.00000
     41     -12.0303      2.00000
     42     -11.7663      2.00000
     43     -11.7627      2.00000
     44     -11.7607      2.00000
     45     -11.6942      2.00000
     46     -11.6888      2.00000
     47     -11.6513      2.00000
     48     -11.6505      2.00000
     49     -11.6488      2.00000
     50     -11.6437      2.00000
     51     -10.8060      2.00000
     52     -10.8029      2.00000
     53     -10.4290      2.00000
     54     -10.3339      2.00000
     55     -10.2882      2.00000
     56     -10.2865      2.00000
     57     -10.2695      2.00000
     58     -10.0744      2.00000
     59      -9.6851      2.00000
     60      -9.6816      2.00000
     61      -9.3274      2.00000
     62      -9.3247      2.00000
     63      -9.2971      2.00000
     64      -9.2812      2.00000
     65      -9.2788      2.00000
     66      -9.0423      2.00000
     67      -9.0037      2.00000
     68      -9.0027      2.00000
     69      -8.9591      2.00000
     70      -8.9434      2.00000
     71      -8.9403      2.00000
     72      -8.9319      2.00000
     73      -8.9207      2.00000
     74      -8.9193      2.00000
     75      -8.8952      2.00000
     76      -8.4354      2.00000
     77      -7.8064      2.00000
     78      -7.8008      2.00000
     79      -7.3241      2.00000
     80      -7.3198      2.00000
     81      -7.3101      2.00000
     82      -7.3008      2.00000
     83      -7.2989      2.00000
     84      -7.2941      2.00000
     85      -7.1616      2.00000
     86      -7.1606      2.00000
     87      -7.1571      2.00000
     88      -6.7531      2.00000
     89      -6.5083      2.00000
     90      -6.5013      2.00000
     91      -6.2672      2.00000
     92      -6.2488      2.00000
     93      -6.2457      2.00000
     94      -5.9283      2.00000
     95      -5.9167      2.00000
     96      -5.1957      2.00000
     97      -4.7661      2.00000
     98      -4.7615      2.00000
     99      -4.2743      2.00000
    100      -4.2664      2.00000
    101      -4.2615      2.00000
    102      -3.2143      2.00000
    103      -3.2142      2.00000
    104      -2.9151      0.00421
    105      -1.4628      0.00000
    106      -1.4571      0.00000
    107      -1.4557      0.00000
    108      -0.9955      0.00000
    109      -0.9874      0.00000
    110      -0.5431      0.00000
    111       0.4181      0.00000
    112       0.4214      0.00000
    113       0.4288      0.00000
    114       0.5618      0.00000
    115       0.8367      0.00000
    116       0.8436      0.00000
    117       1.2939      0.00000
    118       1.3395      0.00000
    119       1.6814      0.00000
    120       1.8013      0.00000
    121       1.8027      0.00000
    122       1.8039      0.00000
    123       1.8248      0.00000
    124       1.8262      0.00000
    125       2.0310      0.00000
    126       2.1776      0.00000
    127       2.1800      0.00000
    128       2.1809      0.00000
    129       2.3441      0.00000
    130       2.3493      0.00000
    131       2.6391      0.00000
    132       2.6431      0.00000

 k-point     2 :       0.3333    0.0000    0.0000
  band No.  band energies     occupation 
      1     -31.7390      2.00000
      2     -22.1879      2.00000
      3     -21.8696      2.00000
      4     -21.6621      2.00000
      5     -21.4535      2.00000
      6     -21.0351      2.00000
      7     -20.8942      2.00000
      8     -20.7287      2.00000
      9     -20.4200      2.00000
     10     -20.1603      2.00000
     11     -19.7864      2.00000
     12     -19.7026      2.00000
     13     -19.3252      2.00000
     14     -19.2424      2.00000
     15     -19.0616      2.00000
     16     -18.5938      2.00000
     17     -18.4549      2.00000
     18     -18.1216      2.00000
     19     -18.0620      2.00000
     20     -17.5910      2.00000
     21     -17.4978      2.00000
     22     -17.2963      2.00000
     23     -17.2786      2.00000
     24     -16.8516      2.00000
     25     -16.6615      2.00000
     26     -16.1756      2.00000
     27     -15.9777      2.00000
     28     -15.8471      2.00000
     29     -15.2972      2.00000
     30     -15.1716      2.00000
     31     -15.1307      2.00000
     32     -14.8845      2.00000
     33     -14.7791      2.00000
     34     -14.4779      2.00000
     35     -14.4577      2.00000
     36     -13.7677      2.00000
     37     -13.7564      2.00000
     38     -13.1949      2.00000
     39     -13.0923      2.00000
     40     -12.9336      2.00000
     41     -12.9058      2.00000
     42     -12.5853      2.00000
     43     -12.5505      2.00000
     44     -12.3893      2.00000
     45     -12.0240      2.00000
     46     -11.6629      2.00000
     47     -11.4462      2.00000
     48     -11.2934      2.00000
     49     -11.1212      2.00000
     50     -10.9130      2.00000
     51     -10.8460      2.00000
     52     -10.5843      2.00000
     53     -10.5310      2.00000
     54     -10.2857      2.00000
     55     -10.2363      2.00000
     56     -10.1632      2.00000
     57     -10.0493      2.00000
     58      -9.8537      2.00000
     59      -9.8206      2.00000
     60      -9.6542      2.00000
     61      -9.6075      2.00000
     62      -9.5604      2.00000
     63      -9.5265      2.00000
     64      -9.3746      2.00000
     65      -9.3403      2.00000
     66      -9.2590      2.00000
     67      -9.1767      2.00000
     68      -9.0997      2.00000
     69      -9.0801      2.00000
     70      -8.8648      2.00000
     71      -8.7116      2.00000
     72      -8.6623      2.00000
     73      -8.5050      2.00000
     74      -8.4006      2.00000
     75      -8.2851      2.00000
     76      -8.1325      2.00000
     77      -8.0951      2.00000
     78      -8.0642      2.00000
     79      -7.9687      2.00000
     80      -7.8064      2.00000
     81      -7.6207      2.00000
     82      -7.3607      2.00000
     83      -7.3397      2.00000
     84      -7.2714      2.00000
     85      -7.1985      2.00000
     86      -6.9197      2.00000
     87      -6.8717      2.00000
     88      -6.6880      2.00000
     89      -6.5913      2.00000
     90      -6.3528      2.00000
     91      -6.1827      2.00000
     92      -6.0719      2.00000
     93      -5.9191      2.00000
     94      -5.7403      2.00000
     95      -5.6401      2.00000
     96      -5.3212      2.00000
     97      -5.1162      2.00000
     98      -4.9667      2.00000
     99      -4.9237      2.00000
    100      -4.2696      2.00000
    101      -4.1710      2.00000
    102      -3.3356      2.00000
    103      -3.1368      1.99935
    104      -2.8032      0.00000
    105      -1.5886      0.00000
    106      -1.4229      0.00000
    107      -0.8476      0.00000
    108      -0.8150      0.00000
    109      -0.7059      0.00000
    110      -0.6681      0.00000
    111      -0.1271      0.00000
    112      -0.0038      0.00000
    113       0.2905      0.00000
    114       0.7042      0.00000
    115       0.7264      0.00000
    116       1.0989      0.00000
    117       1.1750      0.00000
    118       1.3677      0.00000
    119       1.4624      0.00000
    120       1.5371      0.00000
    121       1.5705      0.00000
    122       1.6371      0.00000
    123       1.8309      0.00000
    124       1.9114      0.00000
    125       2.0422      0.00000
    126       2.2208      0.00000
    127       2.2716      0.00000
    128       2.3285      0.00000
    129       2.3390      0.00000
    130       2.3950      0.00000
    131       2.4575      0.00000
    132       2.7950      0.00000

 k-point     3 :       0.0000    0.3333    0.0000
  band No.  band energies     occupation 
      1     -31.7390      2.00000
      2     -22.1883      2.00000
      3     -21.8687      2.00000
      4     -21.6622      2.00000
      5     -21.4539      2.00000
      6     -21.0357      2.00000
      7     -20.8952      2.00000
      8     -20.7266      2.00000
      9     -20.4209      2.00000
     10     -20.1614      2.00000
     11     -19.7867      2.00000
     12     -19.6981      2.00000
     13     -19.3307      2.00000
     14     -19.2386      2.00000
     15     -19.0621      2.00000
     16     -18.5936      2.00000
     17     -18.4580      2.00000
     18     -18.1179      2.00000
     19     -18.0637      2.00000
     20     -17.5904      2.00000
     21     -17.4997      2.00000
     22     -17.3001      2.00000
     23     -17.2733      2.00000
     24     -16.8540      2.00000
     25     -16.6590      2.00000
     26     -16.1734      2.00000
     27     -15.9765      2.00000
     28     -15.8486      2.00000
     29     -15.2983      2.00000
     30     -15.1687      2.00000
     31     -15.1339      2.00000
     32     -14.8827      2.00000
     33     -14.7839      2.00000
     34     -14.4764      2.00000
     35     -14.4574      2.00000
     36     -13.7668      2.00000
     37     -13.7595      2.00000
     38     -13.1946      2.00000
     39     -13.0916      2.00000
     40     -12.9342      2.00000
     41     -12.9047      2.00000
     42     -12.5843      2.00000
     43     -12.5483      2.00000
     44     -12.3884      2.00000
     45     -12.0228      2.00000
     46     -11.6627      2.00000
     47     -11.4459      2.00000
     48     -11.2962      2.00000
     49     -11.1233      2.00000
     50     -10.9121      2.00000
     51     -10.8495      2.00000
     52     -10.5840      2.00000
     53     -10.5320      2.00000
     54     -10.2865      2.00000
     55     -10.2365      2.00000
     56     -10.1582      2.00000
     57     -10.0498      2.00000
     58      -9.8530      2.00000
     59      -9.8214      2.00000
     60      -9.6547      2.00000
     61      -9.6074      2.00000
     62      -9.5589      2.00000
     63      -9.5263      2.00000
     64      -9.3709      2.00000
     65      -9.3409      2.00000
     66      -9.2615      2.00000
     67      -9.1777      2.00000
     68      -9.1002      2.00000
     69      -9.0782      2.00000
     70      -8.8651      2.00000
     71      -8.7120      2.00000
     72      -8.6633      2.00000
     73      -8.5032      2.00000
     74      -8.4025      2.00000
     75      -8.2859      2.00000
     76      -8.1343      2.00000
     77      -8.0953      2.00000
     78      -8.0680      2.00000
     79      -7.9669      2.00000
     80      -7.8076      2.00000
     81      -7.6201      2.00000
     82      -7.3601      2.00000
     83      -7.3377      2.00000
     84      -7.2647      2.00000
     85      -7.1952      2.00000
     86      -6.9243      2.00000
     87      -6.8687      2.00000
     88      -6.6918      2.00000
     89      -6.5920      2.00000
     90      -6.3492      2.00000
     91      -6.1852      2.00000
     92      -6.0739      2.00000
     93      -5.9224      2.00000
     94      -5.7371      2.00000
     95      -5.6399      2.00000
     96      -5.3223      2.00000
     97      -5.1162      2.00000
     98      -4.9686      2.00000
     99      -4.9208      2.00000
    100      -4.2699      2.00000
    101      -4.1707      2.00000
    102      -3.3369      2.00000
    103      -3.1368      1.99934
    104      -2.8015      0.00000
    105      -1.5874      0.00000
    106      -1.4251      0.00000
    107      -0.8420      0.00000
    108      -0.8227      0.00000
    109      -0.7064      0.00000
    110      -0.6651      0.00000
    111      -0.1284      0.00000
    112      -0.0066      0.00000
    113       0.2947      0.00000
    114       0.7042      0.00000
    115       0.7276      0.00000
    116       1.1001      0.00000
    117       1.1768      0.00000
    118       1.3605      0.00000
    119       1.4634      0.00000
    120       1.5365      0.00000
    121       1.5732      0.00000
    122       1.6397      0.00000
    123       1.8319      0.00000
    124       1.9128      0.00000
    125       2.0394      0.00000
    126       2.2280      0.00000
    127       2.2749      0.00000
    128       2.3355      0.00000
    129       2.4265      0.00000
    130       2.7389      0.00000
    131       3.2540      0.00000
    132       3.6140      0.00000

 k-point     4 :       0.3333    0.3333    0.0000
  band No.  band energies     occupation 
      1     -31.7390      2.00000
      2     -22.1882      2.00000
      3     -21.8692      2.00000
      4     -21.6618      2.00000
      5     -21.4535      2.00000
      6     -21.0358      2.00000
      7     -20.8966      2.00000
      8     -20.7253      2.00000
      9     -20.4210      2.00000
     10     -20.1607      2.00000
     11     -19.7881      2.00000
     12     -19.6991      2.00000
     13     -19.3248      2.00000
     14     -19.2431      2.00000
     15     -19.0610      2.00000
     16     -18.5935      2.00000
     17     -18.4579      2.00000
     18     -18.1220      2.00000
     19     -18.0622      2.00000
     20     -17.5892      2.00000
     21     -17.4988      2.00000
     22     -17.3005      2.00000
     23     -17.2743      2.00000
     24     -16.8523      2.00000
     25     -16.6581      2.00000
     26     -16.1757      2.00000
     27     -15.9766      2.00000
     28     -15.8448      2.00000
     29     -15.3008      2.00000
     30     -15.1674      2.00000
     31     -15.1352      2.00000
     32     -14.8879      2.00000
     33     -14.7830      2.00000
     34     -14.4766      2.00000
     35     -14.4555      2.00000
     36     -13.7656      2.00000
     37     -13.7588      2.00000
     38     -13.1971      2.00000
     39     -13.0873      2.00000
     40     -12.9347      2.00000
     41     -12.9027      2.00000
     42     -12.5835      2.00000
     43     -12.5469      2.00000
     44     -12.3935      2.00000
     45     -12.0219      2.00000
     46     -11.6625      2.00000
     47     -11.4454      2.00000
     48     -11.2994      2.00000
     49     -11.1252      2.00000
     50     -10.9112      2.00000
     51     -10.8502      2.00000
     52     -10.5834      2.00000
     53     -10.5333      2.00000
     54     -10.2844      2.00000
     55     -10.2365      2.00000
     56     -10.1608      2.00000
     57     -10.0496      2.00000
     58      -9.8533      2.00000
     59      -9.8159      2.00000
     60      -9.6533      2.00000
     61      -9.6077      2.00000
     62      -9.5602      2.00000
     63      -9.5264      2.00000
     64      -9.3679      2.00000
     65      -9.3399      2.00000
     66      -9.2595      2.00000
     67      -9.1767      2.00000
     68      -9.0998      2.00000
     69      -9.0811      2.00000
     70      -8.8651      2.00000
     71      -8.7127      2.00000
     72      -8.6646      2.00000
     73      -8.5032      2.00000
     74      -8.4073      2.00000
     75      -8.2871      2.00000
     76      -8.1360      2.00000
     77      -8.0967      2.00000
     78      -8.0697      2.00000
     79      -7.9703      2.00000
     80      -7.8071      2.00000
     81      -7.6151      2.00000
     82      -7.3592      2.00000
     83      -7.3355      2.00000
     84      -7.2621      2.00000
     85      -7.1949      2.00000
     86      -6.9188      2.00000
     87      -6.8713      2.00000
     88      -6.6943      2.00000
     89      -6.5904      2.00000
     90      -6.3441      2.00000
     91      -6.1902      2.00000
     92      -6.0759      2.00000
     93      -5.9218      2.00000
     94      -5.7390      2.00000
     95      -5.6406      2.00000
     96      -5.3230      2.00000
     97      -5.1134      2.00000
     98      -4.9701      2.00000
     99      -4.9229      2.00000
    100      -4.2712      2.00000
    101      -4.1666      2.00000
    102      -3.3362      2.00000
    103      -3.1350      1.99921
    104      -2.8028      0.00000
    105      -1.5953      0.00000
    106      -1.4225      0.00000
    107      -0.8378      0.00000
    108      -0.8219      0.00000
    109      -0.7060      0.00000
    110      -0.6671      0.00000
    111      -0.1274      0.00000
    112      -0.0049      0.00000
    113       0.2944      0.00000
    114       0.7044      0.00000
    115       0.7289      0.00000
    116       1.1004      0.00000
    117       1.1765      0.00000
    118       1.3642      0.00000
    119       1.4643      0.00000
    120       1.5609      0.00000
    121       1.5763      0.00000
    122       1.7488      0.00000
    123       1.8323      0.00000
    124       2.1795      0.00000
    125       2.3360      0.00000
    126       2.3968      0.00000
    127       2.6181      0.00000
    128       2.7882      0.00000
    129       2.8473      0.00000
    130       3.2034      0.00000
    131       3.5961      0.00000
    132       4.1787      0.00000

 k-point     5 :      -0.3333    0.3333    0.0000
  band No.  band energies     occupation 
      1     -31.7391      2.00000
      2     -22.0783      2.00000
      3     -22.0085      2.00000
      4     -21.8024      2.00000
      5     -21.1698      2.00000
      6     -21.1508      2.00000
      7     -20.8687      2.00000
      8     -20.4114      2.00000
      9     -20.3391      2.00000
     10     -20.1720      2.00000
     11     -20.1480      2.00000
     12     -20.1440      2.00000
     13     -19.5678      2.00000
     14     -18.8269      2.00000
     15     -18.6742      2.00000
     16     -18.3704      2.00000
     17     -18.3458      2.00000
     18     -18.3386      2.00000
     19     -17.9294      2.00000
     20     -17.8019      2.00000
     21     -17.6048      2.00000
     22     -17.2616      2.00000
     23     -17.1488      2.00000
     24     -17.1205      2.00000
     25     -16.5420      2.00000
     26     -16.4380      2.00000
     27     -16.2842      2.00000
     28     -15.8091      2.00000
     29     -15.6287      2.00000
     30     -15.1743      2.00000
     31     -14.9704      2.00000
     32     -14.6499      2.00000
     33     -13.9600      2.00000
     34     -13.9394      2.00000
     35     -13.9235      2.00000
     36     -13.8749      2.00000
     37     -13.8648      2.00000
     38     -13.7899      2.00000
     39     -13.6745      2.00000
     40     -13.4959      2.00000
     41     -13.0378      2.00000
     42     -12.4732      2.00000
     43     -12.2525      2.00000
     44     -12.0732      2.00000
     45     -11.8226      2.00000
     46     -11.7708      2.00000
     47     -11.5615      2.00000
     48     -11.5456      2.00000
     49     -11.5231      2.00000
     50     -10.9289      2.00000
     51     -10.8183      2.00000
     52     -10.5307      2.00000
     53     -10.2089      2.00000
     54     -10.2029      2.00000
     55     -10.1924      2.00000
     56     -10.0931      2.00000
     57     -10.0520      2.00000
     58     -10.0228      2.00000
     59      -9.9012      2.00000
     60      -9.7523      2.00000
     61      -9.7465      2.00000
     62      -9.5626      2.00000
     63      -9.4415      2.00000
     64      -9.4049      2.00000
     65      -9.2001      2.00000
     66      -9.0483      2.00000
     67      -9.0344      2.00000
     68      -8.9032      2.00000
     69      -8.8875      2.00000
     70      -8.6879      2.00000
     71      -8.6380      2.00000
     72      -8.6325      2.00000
     73      -8.6211      2.00000
     74      -8.5831      2.00000
     75      -8.3747      2.00000
     76      -8.2499      2.00000
     77      -8.1605      2.00000
     78      -8.0349      2.00000
     79      -7.9844      2.00000
     80      -7.8797      2.00000
     81      -7.8565      2.00000
     82      -7.8549      2.00000
     83      -7.2298      2.00000
     84      -7.1847      2.00000
     85      -7.1267      2.00000
     86      -6.8822      2.00000
     87      -6.7222      2.00000
     88      -6.6068      2.00000
     89      -6.4647      2.00000
     90      -6.2679      2.00000
     91      -6.1020      2.00000
     92      -5.9160      2.00000
     93      -5.9082      2.00000
     94      -5.8998      2.00000
     95      -5.4536      2.00000
     96      -5.4244      2.00000
     97      -5.1218      2.00000
     98      -5.0097      2.00000
     99      -4.9837      2.00000
    100      -4.9576      2.00000
    101      -3.7327      2.00000
    102      -3.4587      2.00000
    103      -3.2793      2.00000
    104      -2.3865      0.00000
    105      -2.2220      0.00000
    106      -0.9326      0.00000
    107      -0.8811      0.00000
    108      -0.8689      0.00000
    109      -0.5356      0.00000
    110      -0.2640      0.00000
    111      -0.2113      0.00000
    112       0.2527      0.00000
    113       0.2553      0.00000
    114       0.2662      0.00000
    115       0.5966      0.00000
    116       0.7926      0.00000
    117       0.9492      0.00000
    118       0.9720      0.00000
    119       1.0609      0.00000
    120       1.7345      0.00000
    121       1.7481      0.00000
    122       1.7640      0.00000
    123       1.8274      0.00000
    124       2.1182      0.00000
    125       2.1241      0.00000
    126       2.1278      0.00000
    127       2.2456      0.00000
    128       2.2480      0.00000
    129       2.3610      0.00000
    130       3.0006      0.00000
    131       3.0119      0.00000
    132       3.0345      0.00000


--------------------------------------------------------------------------------------------------------


 soft charge-density along one line, spin component           1
         0         1         2         3         4         5         6         7         8         9
 total charge-density along one line
 
 pseudopotential strength for first ion, spin component:           1
 10.222  13.594   0.000  -0.000   0.000  -0.000   0.000  -0.000
 13.594  18.076   0.000  -0.000   0.000  -0.000   0.000  -0.001
  0.000   0.000  -4.352  -0.000  -0.000   8.513   0.000   0.000
 -0.000  -0.000  -0.000  -4.344  -0.000   0.000   8.502   0.000
  0.000   0.000  -0.000  -0.000  -4.352   0.000   0.000   8.513
 -0.000  -0.000   8.513   0.000   0.000 -18.786  -0.000  -0.000
  0.000   0.000   0.000   8.502   0.000  -0.000 -18.776  -0.000
 -0.000  -0.001   0.000   0.000   8.513  -0.000  -0.000 -18.787
 total augmentation occupancy for first ion, spin component:           1
  8.358  -3.740   0.002   0.000   0.003   0.000   0.000   0.001
 -3.740   1.729  -0.002  -0.000  -0.003  -0.000   0.000  -0.000
  0.002  -0.002   1.840  -0.000  -0.001   0.174   0.000   0.000
  0.000  -0.000  -0.000   1.223  -0.000   0.000   0.078   0.000
  0.003  -0.003  -0.001  -0.000   1.839   0.000   0.000   0.174
  0.000  -0.000   0.174   0.000   0.000   0.018   0.000   0.000
  0.000   0.000   0.000   0.078   0.000   0.000   0.005   0.000
  0.001  -0.000   0.000   0.000   0.174   0.000   0.000   0.018


------------------------ aborting loop because EDIFF is reached ----------------------------------------


    CHARGE:  cpu time    0.4027: real time    0.4066
    FORLOC:  cpu time    0.0296: real time    0.0299
    FORNL :  cpu time    1.9458: real time    1.9646
    STRESS:  cpu time    3.2639: real time    3.2950
    FORCOR:  cpu time    0.1190: real time    0.1202
    FORHAR:  cpu time    0.0485: real time    0.0488
    MIXING:  cpu time    0.0037: real time    0.0039
    OFIELD:  cpu time    0.0001: real time    0.0001

  FORCE on cell =-STRESS in cart. coord.  units (eV):
  Direction    XX          YY          ZZ          XY          YZ          ZX
  --------------------------------------------------------------------------------------
  Alpha Z    82.54348    82.54348    82.54348
  Ewald   41234.47127 41234.57093-47952.46022    -2.11790     0.03628     0.02008
  Hartree 40516.62884 40516.72074-39998.57029    -0.21957     0.03132     0.01763
  E(xc)    -777.15608  -777.15633  -804.23595    -0.00705     0.00000     0.00001
  Local  -83988.74054-83988.93477 85337.35037     1.89929    -0.06622    -0.03772
  n-local  -203.93412  -203.93211  -194.69145    -0.02002     0.00096    -0.00003
  augment   -12.38111   -12.38073   -14.04741     0.00328    -0.00016     0.00002
  Kinetic  3164.12402  3164.12102  3596.27264     0.33654    -0.00664    -0.00132
  Fock        0.00000     0.00000     0.00000     0.00000     0.00000     0.00000
  -------------------------------------------------------------------------------------
  Total      15.55577    15.55223    52.16117    -0.12544    -0.00445    -0.00132
  in kB       9.51111     9.50894    31.89239    -0.07670    -0.00272    -0.00081
  external pressure =       16.97 kB  Pullay stress =        0.00 kB


 VOLUME and BASIS-vectors are now :
 -----------------------------------------------------------------------------
  energy-cutoff  :      400.00
  volume of cell :     2620.42
      direct lattice vectors                 reciprocal lattice vectors
    12.300000191  0.000000000  0.000000000     0.081300812 -0.046939053  0.000000000
     6.150000804 10.652112223  0.000000000     0.000000000  0.093878095  0.000000000
     0.000000000  0.000000000 20.000000000     0.000000000  0.000000000  0.050000000

  length of vectors
    12.300000191 12.300000191 20.000000000     0.093878095  0.093878095  0.050000000


 FORCES acting on ions
    electron-ion (+dipol)            ewald-force                    non-local-force                 convergence-correction
 -----------------------------------------------------------------------------------------------
   -.158E+01 -.888E+00 0.279E+01   0.144E+01 0.801E+00 -.278E+01   0.879E-01 0.503E-01 -.265E-03   -.849E-03 0.876E-03 0.727E-03
   0.639E+00 -.180E+01 0.279E+01   -.341E+00 0.181E+01 -.278E+01   -.399E-01 0.254E-01 -.105E-03   0.220E-02 -.633E-03 0.986E-05
   0.286E+01 0.739E+01 0.381E+01   -.273E+01 -.754E+01 -.377E+01   -.630E-01 0.982E-01 -.707E-01   -.647E-03 0.428E-02 0.151E-03
   -.946E-01 0.129E+02 0.480E+01   0.915E-01 -.131E+02 -.494E+01   0.345E-02 0.111E-01 0.112E+00   -.190E-02 0.452E-02 0.238E-04
   -.374E+01 0.642E+01 0.381E+01   0.378E+01 -.649E+01 -.377E+01   0.115E+00 0.767E-01 -.715E-01   -.214E-02 0.327E-02 0.461E-03
   -.135E+00 0.184E+01 0.279E+01   0.133E+00 -.169E+01 -.278E+01   -.445E-03 -.924E-01 -.285E-03   0.923E-03 0.346E-03 0.393E-03
   0.125E+02 0.674E+01 0.489E+01   -.121E+02 -.655E+01 -.494E+01   0.194E+00 0.626E-01 0.522E-01   0.358E-02 -.249E-03 -.130E-03
   0.207E+02 0.361E+02 0.186E+02   -.213E+02 -.370E+02 -.190E+02   0.637E+00 0.648E+00 0.545E+00   0.166E-02 0.211E-02 0.110E-02
   -.209E+02 0.362E+02 0.186E+02   0.215E+02 -.371E+02 -.190E+02   -.639E+00 0.654E+00 0.546E+00   -.480E-02 0.349E-02 0.248E-03
   -.117E+02 0.674E+01 0.489E+01   0.114E+02 -.656E+01 -.494E+01   -.108E+00 0.622E-01 0.525E-01   -.246E-02 0.925E-03 -.443E-04
   0.744E+01 0.420E-01 0.381E+01   -.751E+01 -.417E-01 -.377E+01   0.122E-01 -.147E+00 -.714E-01   0.290E-02 -.797E-04 0.357E-03
   0.419E+02 -.898E-01 0.186E+02   -.429E+02 0.413E-01 -.190E+02   0.888E+00 0.235E+00 0.546E+00   0.413E-02 0.169E-02 -.336E-03
   -.129E-01 -.213E-01 0.291E+03   0.152E-01 0.265E-01 -.346E+03   0.722E-03 -.234E-03 0.713E+01   -.243E-02 -.187E-02 0.772E-02
   -.418E+02 -.406E-01 0.186E+02   0.429E+02 -.643E-04 -.190E+02   -.884E+00 0.226E+00 0.545E+00   -.448E-02 -.634E-03 -.513E-03
   -.743E+01 0.185E-01 0.381E+01   0.750E+01 -.266E-01 -.377E+01   -.952E-02 -.136E+00 -.714E-01   -.163E-02 0.787E-03 0.552E-03
   0.111E+02 -.643E+01 0.480E+01   -.113E+02 0.655E+01 -.494E+01   0.106E-01 -.641E-02 0.112E+00   0.356E-02 -.242E-02 -.429E-03
   0.209E+02 -.362E+02 0.186E+02   -.214E+02 0.371E+02 -.190E+02   0.247E+00 -.878E+00 0.545E+00   0.769E-03 -.494E-02 0.929E-04
   -.209E+02 -.362E+02 0.186E+02   0.214E+02 0.371E+02 -.190E+02   -.247E+00 -.880E+00 0.546E+00   -.210E-02 -.756E-03 0.170E-03
   -.111E+02 -.642E+01 0.480E+01   0.113E+02 0.653E+01 -.494E+01   -.103E-01 -.626E-02 0.111E+00   -.349E-02 -.780E-03 -.878E-04
   -.362E-02 -.146E+01 0.282E+01   0.408E-02 0.154E+01 -.278E+01   -.331E-03 -.865E-01 -.150E-01   0.635E-03 -.205E-02 0.607E-03
   0.369E+01 -.642E+01 0.381E+01   -.372E+01 0.650E+01 -.377E+01   0.122E+00 0.598E-01 -.714E-01   0.103E-02 -.358E-02 0.509E-03
   -.224E-01 -.135E+02 0.489E+01   0.193E-01 0.132E+02 -.494E+01   -.350E-02 -.128E+00 0.525E-01   0.333E-03 -.346E-02 0.127E-03
   -.361E+01 -.642E+01 0.381E+01   0.365E+01 0.649E+01 -.377E+01   -.115E+00 0.606E-01 -.719E-01   -.440E-03 -.751E-03 0.386E-04
   -.131E+01 0.804E+00 0.282E+01   0.137E+01 -.843E+00 -.278E+01   -.791E-01 0.476E-01 -.149E-01   -.152E-02 0.260E-02 0.466E-03
   0.126E+01 0.754E+00 0.282E+01   -.132E+01 -.791E+00 -.278E+01   0.721E-01 0.438E-01 -.149E-01   0.103E-02 0.101E-02 0.717E-03
   -.293E+00 -.404E-04 0.250E+01   0.315E+00 0.115E-03 -.250E+01   0.260E-01 -.387E-02 -.103E-01   0.888E-03 0.319E-03 0.315E-03
   0.762E+01 0.408E+01 0.342E+01   -.780E+01 -.430E+01 -.338E+01   -.359E+00 0.477E-02 -.240E-01   0.592E-02 0.166E-02 -.151E-03
   0.578E+01 0.171E+02 0.688E+01   -.549E+01 -.171E+02 -.650E+01   -.406E-01 0.166E+00 -.123E+00   0.224E-03 0.189E-02 0.381E-03
   -.612E+01 0.171E+02 0.688E+01   0.587E+01 -.171E+02 -.650E+01   0.682E-01 0.161E+00 -.121E+00   -.222E-02 0.401E-02 0.293E-03
   -.536E+01 0.407E+01 0.341E+01   0.519E+01 -.429E+01 -.338E+01   0.736E-01 0.279E-02 -.239E-01   -.176E-02 0.231E-02 0.472E-03
   0.618E+01 0.276E+01 0.341E+01   -.632E+01 -.251E+01 -.338E+01   -.121E-01 -.880E-01 -.240E-01   0.419E-02 0.670E-03 0.246E-03
   0.283E+02 0.161E+02 0.126E+02   -.286E+02 -.163E+02 -.131E+02   -.137E+00 -.678E-01 0.145E+00   0.218E-02 -.677E-03 0.200E-03
   -.400E-01 0.877E+02 0.586E+02   0.450E-01 -.922E+02 -.663E+02   -.867E-03 -.637E+00 0.331E+01   0.199E-02 0.455E-02 0.143E-02
   -.283E+02 0.163E+02 0.126E+02   0.286E+02 -.165E+02 -.131E+02   0.159E+00 -.914E-01 0.145E+00   -.405E-02 0.132E-02 -.621E-05
   -.622E+01 0.260E+01 0.341E+01   0.633E+01 -.234E+01 -.338E+01   0.329E-01 -.633E-01 -.238E-01   -.240E-02 0.541E-03 0.495E-03
   0.179E+02 -.331E+01 0.688E+01   -.177E+02 0.349E+01 -.650E+01   0.104E+00 -.138E+00 -.121E+00   0.312E-02 -.129E-02 -.243E-03
   0.760E+02 -.439E+02 0.586E+02   -.799E+02 0.461E+02 -.663E+02   -.552E+00 0.321E+00 0.330E+01   0.458E-02 -.157E-02 0.283E-02
   -.760E+02 -.439E+02 0.586E+02   0.799E+02 0.461E+02 -.663E+02   0.555E+00 0.320E+00 0.330E+01   -.400E-02 -.536E-02 0.506E-03
   -.179E+02 -.330E+01 0.688E+01   0.177E+02 0.348E+01 -.650E+01   -.106E+00 -.137E+00 -.121E+00   -.217E-02 -.850E-03 -.320E-04
   -.643E-02 -.577E+00 0.293E+01   0.218E-02 0.817E+00 -.290E+01   0.233E-02 -.156E+00 -.522E-01   0.666E-03 -.204E-02 0.340E-03
   0.118E+02 -.138E+02 0.688E+01   -.119E+02 0.136E+02 -.650E+01   0.171E+00 -.230E-01 -.121E+00   0.362E-02 -.326E-02 0.320E-03
   -.258E-02 -.327E+02 0.126E+02   0.218E-02 0.330E+02 -.131E+02   0.240E-03 0.182E+00 0.145E+00   -.126E-02 -.330E-02 -.112E-03
   -.118E+02 -.138E+02 0.688E+01   0.118E+02 0.136E+02 -.650E+01   -.171E+00 -.233E-01 -.121E+00   -.144E-02 -.124E-02 0.135E-03
   -.385E+01 -.219E+01 0.282E+01   0.379E+01 0.216E+01 -.286E+01   -.195E-01 -.967E-02 0.130E-01   -.283E-02 -.878E-03 0.595E-03
   0.384E+01 -.221E+01 0.282E+01   -.377E+01 0.217E+01 -.286E+01   0.189E-01 -.114E-01 0.129E-01   0.287E-02 -.217E-02 0.279E-03
   0.832E+00 -.667E+01 0.341E+01   -.110E+01 0.664E+01 -.338E+01   0.381E-01 0.614E-01 -.239E-01   0.104E-02 -.384E-02 0.483E-03
   -.851E+00 -.679E+01 0.341E+01   0.112E+01 0.680E+01 -.338E+01   -.403E-01 0.546E-01 -.239E-01   0.448E-03 -.200E-02 0.786E-04
   -.501E+00 0.461E+00 0.294E+01   0.699E+00 -.624E+00 -.290E+01   -.133E+00 0.825E-01 -.527E-01   -.171E-02 0.206E-02 0.117E-03
   -.363E-01 0.447E+01 0.282E+01   0.451E-01 -.441E+01 -.286E+01   -.450E-03 0.208E-01 0.131E-01   -.164E-02 0.409E-02 0.373E-03
   0.501E+00 0.304E+00 0.293E+01   -.703E+00 -.422E+00 -.290E+01   0.133E+00 0.771E-01 -.520E-01   0.101E-02 -.595E-04 0.554E-03
   -.162E-01 -.255E-01 -.722E+03   0.204E-01 0.363E-01 0.846E+03   0.201E-02 -.136E-01 -.638E+02   -.729E-02 -.167E-02 -.181E-01
 -----------------------------------------------------------------------------------------------
   0.367E-02 0.128E-01 0.440E+02   -.705E-14 0.635E-14 -.455E-12   0.392E-02 -.950E-02 -.440E+02   -.616E-02 -.310E-02 0.475E-02
 
 
 POSITION                                       TOTAL-FORCE (eV/Angst)
 -----------------------------------------------------------------------------------
      0.00000      0.00000      8.35995        -0.051677     -0.035157      0.009343
      2.46000      0.00000      8.35995         0.260824      0.035677      0.009526
      4.92000      0.00000      8.35995         0.067166     -0.055134     -0.026323
      7.38000      0.00000      8.35995        -0.001593     -0.200248     -0.027044
      9.84000      0.00000      8.35995         0.159006      0.013900     -0.025945
      1.23000      2.13042      8.35995        -0.001612      0.067028      0.009347
      3.69000      2.13042      8.35995         0.532574      0.247371      0.000134
      6.15000      2.13042      8.35995         0.089638     -0.218006      0.165599
      8.61000      2.13042      8.35995        -0.096910     -0.205419      0.164964
     11.07000      2.13042      8.35995        -0.431386      0.249610      0.000042
      2.46000      4.26084      8.35995        -0.060717     -0.146332     -0.025981
      4.92000      4.26084      8.35995        -0.122348      0.187940      0.164910
      7.38000      4.26084      8.35995         0.000565      0.003132    -48.161780
      9.84000      4.26084      8.35995         0.131515      0.184478      0.165253
     12.30000      4.26084      8.35995         0.066840     -0.143328     -0.026131
      3.69000      6.39127      8.35995        -0.181489      0.103749     -0.026984
      6.15000      6.39127      8.35995        -0.224452      0.022432      0.165195
      8.61000      6.39127      8.35995         0.225089      0.017071      0.164609
     11.07000      6.39127      8.35995         0.180607      0.106218     -0.026963
     13.53000      6.39127      8.35995         0.000741     -0.012795      0.017828
      4.92000      8.52169      8.35995         0.087729      0.130492     -0.026224
      7.38000      8.52169      8.35995        -0.006256     -0.499108      0.000057
      9.84000      8.52169      8.35995        -0.071812      0.129177     -0.025963
     12.30000      8.52169      8.35995        -0.020459      0.010696      0.017880
     14.76000      8.52169      8.35995         0.005973      0.007835      0.017864
      1.23000      0.71014      8.36012         0.049300     -0.003484     -0.006022
      3.70000      0.71014      8.36012        -0.531324     -0.209573      0.010207
      6.15000      0.71014      8.36012         0.242389      0.254505      0.256594
      8.61000      0.71014      8.36012        -0.192972      0.250368      0.257264
     11.07000      0.71014      8.36012        -0.094392     -0.218618      0.010117
      2.46000      2.84056      8.36012        -0.147733      0.162051      0.010048
      4.92000      2.84056      8.36012        -0.448225     -0.226504     -0.355207
      7.38000      2.84056      8.36012         0.006193     -5.072795     -4.346469
      9.84000      2.84056      8.36012         0.444930     -0.255489     -0.355487
     12.30000      2.84056      8.36012         0.143540      0.190384      0.010110
      3.69000      4.97099      8.36012         0.313913      0.043161      0.257156
      6.15000      4.97099      8.36012        -4.398580      2.537154     -4.349103
      8.61000      4.97099      8.36012         4.395836      2.540539     -4.349651
     11.07000      4.97099      8.36012        -0.313997      0.040797      0.256893
     13.53000      4.97099      8.36012        -0.001283      0.081236     -0.022076
      4.92000      7.10141      8.36012         0.120546     -0.292766      0.256878
      7.38000      7.10141      8.36012        -0.001454      0.511385     -0.355391
      9.84000      7.10141      8.36012        -0.118003     -0.292043      0.257410
     12.30000      7.10141      8.36012        -0.083853     -0.049674     -0.026465
     14.76000      7.10141      8.36012         0.082118     -0.048757     -0.026405
      6.15000      9.23183      8.36012        -0.233002      0.027019      0.010064
      8.61000      9.23183      8.36012         0.227235      0.059726      0.010179
     11.07000      9.23183      8.36012         0.063187     -0.078032     -0.022050
     13.53000      9.23183      8.36012         0.006647      0.093463     -0.026457
     15.99000      9.23183      8.36012        -0.067474     -0.040875     -0.022065
      7.38000      4.26084      9.36012        -0.001096     -0.004456     59.986714
 -----------------------------------------------------------------------------------
    total drift:                                0.001428      0.000213     -0.000686


--------------------------------------------------------------------------------------------------------



  FREE ENERGIE OF THE ION-ELECTRON SYSTEM (eV)
  ---------------------------------------------------
  free  energy   TOTEN  =      -454.33837917 eV

  energy  without entropy=     -454.33826678  energy(sigma->0) =     -454.33832297
 


--------------------------------------------------------------------------------------------------------


    POTLOK:  cpu time    0.1763: real time    0.1782


--------------------------------------------------------------------------------------------------------


 stress matrix after NEB project (eV)
     15.55577     -0.12544     -0.00132
     -0.12544     15.55223     -0.00445
     -0.00132     -0.00445     52.16117
  FORCES: max atom, RMS    59.986714   10.897450
  FORCE total and by dimension   77.823360   59.986714
  Stress total and by dimension   56.609832   52.161172
     LOOP+:  cpu time   42.0149: real time   42.4403
    4ORBIT:  cpu time    0.0000: real time    0.0000

 total amount of memory used by VASP MPI-rank0    90113. kBytes
=======================================================================

   base      :      30000. kBytes
   nonl-proj :       8674. kBytes
   fftplans  :      26248. kBytes
   grid      :      14579. kBytes
   one-center:         21. kBytes
   wavefun   :      10591. kBytes
 
  
  
 General timing and accounting informations for this job:
 ========================================================
  
                  Total CPU time used (sec):       49.614
                            User time (sec):       46.352
                          System time (sec):        3.261
                         Elapsed time (sec):       50.102
  
                   Maximum memory used (kb):      368744.
                   Average memory used (kb):           0.
  
                          Minor page faults:       100767
                          Major page faults:            0
                 Voluntary context switches:         1058
