  51  51   0   0
  0.5138078E+02  0.1230000E-08  0.1230000E-08  0.2000000E-08  0.5000000E-15
  1.000000000000000E-004
  CAR 
                                         
      5.96860378    -33.53371846  301     -3.01665411      1.00000000
    -33.534  0.0000E+00  0.0000E+00
    -33.402  0.0000E+00  0.0000E+00
    -33.270  0.0000E+00  0.0000E+00
    -33.139  0.0000E+00  0.0000E+00
    -33.007  0.0000E+00  0.0000E+00
    -32.875  0.0000E+00  0.0000E+00
    -32.744  0.0000E+00  0.0000E+00
    -32.612  0.0000E+00  0.0000E+00
    -32.480  0.0000E+00  0.0000E+00
    -32.349  0.0000E+00  0.0000E+00
    -32.217  0.0000E+00  0.0000E+00
    -32.085  0.0000E+00  0.0000E+00
    -31.954  0.8278E-08  0.1090E-08
    -31.822  0.1346E+00  0.1772E-01
    -31.690  0.1372E+02  0.1824E+01
    -31.559  0.1337E+01  0.2000E+01
    -31.427  0.2908E-05  0.2000E+01
    -31.295  0.0000E+00  0.2000E+01
    -31.164  0.0000E+00  0.2000E+01
    -31.032  0.0000E+00  0.2000E+01
    -30.900  0.0000E+00  0.2000E+01
    -30.769  0.0000E+00  0.2000E+01
    -30.637  0.0000E+00  0.2000E+01
    -30.505  0.0000E+00  0.2000E+01
    -30.374  0.0000E+00  0.2000E+01
    -30.242  0.0000E+00  0.2000E+01
    -30.110  0.0000E+00  0.2000E+01
    -29.979  0.0000E+00  0.2000E+01
    -29.847  0.0000E+00  0.2000E+01
    -29.715  0.0000E+00  0.2000E+01
    -29.583  0.0000E+00  0.2000E+01
    -29.452  0.0000E+00  0.2000E+01
    -29.320  0.0000E+00  0.2000E+01
    -29.188  0.0000E+00  0.2000E+01
    -29.057  0.0000E+00  0.2000E+01
    -28.925  0.0000E+00  0.2000E+01
    -28.793  0.0000E+00  0.2000E+01
    -28.662  0.0000E+00  0.2000E+01
    -28.530  0.0000E+00  0.2000E+01
    -28.398  0.0000E+00  0.2000E+01
    -28.267  0.0000E+00  0.2000E+01
    -28.135  0.0000E+00  0.2000E+01
    -28.003  0.0000E+00  0.2000E+01
    -27.872  0.0000E+00  0.2000E+01
    -27.740  0.0000E+00  0.2000E+01
    -27.608  0.0000E+00  0.2000E+01
    -27.477  0.0000E+00  0.2000E+01
    -27.345  0.0000E+00  0.2000E+01
    -27.213  0.0000E+00  0.2000E+01
    -27.082  0.0000E+00  0.2000E+01
    -26.950  0.0000E+00  0.2000E+01
    -26.818  0.0000E+00  0.2000E+01
    -26.687  0.0000E+00  0.2000E+01
    -26.555  0.0000E+00  0.2000E+01
    -26.423  0.0000E+00  0.2000E+01
    -26.292  0.0000E+00  0.2000E+01
    -26.160  0.0000E+00  0.2000E+01
    -26.028  0.0000E+00  0.2000E+01
    -25.897  0.0000E+00  0.2000E+01
    -25.765  0.0000E+00  0.2000E+01
    -25.633  0.0000E+00  0.2000E+01
    -25.502  0.0000E+00  0.2000E+01
    -25.370  0.0000E+00  0.2000E+01
    -25.238  0.0000E+00  0.2000E+01
    -25.107  0.0000E+00  0.2000E+01
    -24.975  0.0000E+00  0.2000E+01
    -24.843  0.0000E+00  0.2000E+01
    -24.712  0.0000E+00  0.2000E+01
    -24.580  0.0000E+00  0.2000E+01
    -24.448  0.0000E+00  0.2000E+01
    -24.317  0.0000E+00  0.2000E+01
    -24.185  0.0000E+00  0.2000E+01
    -24.053  0.0000E+00  0.2000E+01
    -23.921  0.0000E+00  0.2000E+01
    -23.790  0.0000E+00  0.2000E+01
    -23.658  0.0000E+00  0.2000E+01
    -23.526  0.0000E+00  0.2000E+01
    -23.395  0.0000E+00  0.2000E+01
    -23.263  0.0000E+00  0.2000E+01
    -23.131  0.0000E+00  0.2000E+01
    -23.000  0.0000E+00  0.2000E+01
    -22.868  0.0000E+00  0.2000E+01
    -22.736  0.0000E+00  0.2000E+01
    -22.605  0.0000E+00  0.2000E+01
    -22.473  0.8665E-08  0.2000E+01
    -22.341  0.3830E-01  0.2005E+01
    -22.210  0.4352E+01  0.2578E+01
    -22.078  0.9231E+01  0.3794E+01
    -21.946  0.4952E+01  0.4446E+01
    -21.815  0.1068E+02  0.5852E+01
    -21.683  0.5488E+01  0.6575E+01
    -21.551  0.7758E+01  0.7596E+01
    -21.420  0.1275E+02  0.9275E+01
    -21.288  0.5500E+01  0.9999E+01
    -21.156  0.3772E+01  0.1050E+02
    -21.025  0.9100E+01  0.1169E+02
    -20.893  0.1082E+02  0.1312E+02
    -20.761  0.1007E+02  0.1444E+02
    -20.630  0.8412E+01  0.1555E+02
    -20.498  0.1968E+00  0.1558E+02
    -20.366  0.1311E+02  0.1730E+02
    -20.235  0.3974E+01  0.1783E+02
    -20.103  0.1858E+02  0.2027E+02
    -19.971  0.1307E+01  0.2045E+02
    -19.840  0.3514E+01  0.2091E+02
    -19.708  0.1369E+02  0.2271E+02
    -19.576  0.8712E+01  0.2386E+02
    -19.445  0.6130E+01  0.2467E+02
    -19.313  0.6908E+01  0.2557E+02
    -19.181  0.1390E+02  0.2740E+02
    -19.050  0.7659E+01  0.2841E+02
    -18.918  0.4629E+01  0.2902E+02
    -18.786  0.5266E+01  0.2972E+02
    -18.655  0.5297E+01  0.3041E+02
    -18.523  0.1382E+02  0.3223E+02
    -18.391  0.1136E+02  0.3373E+02
    -18.259  0.8741E+01  0.3488E+02
    -18.128  0.4628E+01  0.3549E+02
    -17.996  0.1552E+02  0.3753E+02
    -17.864  0.4772E+01  0.3816E+02
    -17.733  0.3733E+01  0.3865E+02
    -17.601  0.5792E+01  0.3942E+02
    -17.469  0.1569E+02  0.4148E+02
    -17.338  0.4235E+01  0.4204E+02
    -17.206  0.2140E+02  0.4486E+02
    -17.074  0.6841E+01  0.4576E+02
    -16.943  0.3531E+01  0.4622E+02
    -16.811  0.8772E+01  0.4738E+02
    -16.679  0.4096E+01  0.4792E+02
    -16.548  0.8926E+01  0.4909E+02
    -16.416  0.8854E+01  0.5026E+02
    -16.284  0.3177E+01  0.5068E+02
    -16.153  0.9104E+01  0.5187E+02
    -16.021  0.5929E+01  0.5266E+02
    -15.889  0.1306E+02  0.5438E+02
    -15.758  0.1204E+02  0.5596E+02
    -15.626  0.2065E+01  0.5623E+02
    -15.494  0.4209E+01  0.5679E+02
    -15.363  0.2813E+01  0.5716E+02
    -15.231  0.1012E+02  0.5849E+02
    -15.099  0.2208E+02  0.6140E+02
    -14.968  0.4661E+01  0.6201E+02
    -14.836  0.1145E+02  0.6352E+02
    -14.704  0.1054E+02  0.6491E+02
    -14.573  0.6425E+01  0.6575E+02
    -14.441  0.1543E+02  0.6779E+02
    -14.309  0.5006E+01  0.6844E+02
    -14.178  0.1102E+01  0.6859E+02
    -14.046  0.3993E+01  0.6912E+02
    -13.914  0.9958E+01  0.7043E+02
    -13.783  0.1640E+02  0.7259E+02
    -13.651  0.1832E+02  0.7500E+02
    -13.519  0.1675E+01  0.7522E+02
    -13.388  0.2553E+01  0.7556E+02
    -13.256  0.4576E+00  0.7562E+02
    -13.124  0.1109E+02  0.7708E+02
    -12.993  0.1385E+02  0.7890E+02
    -12.861  0.2053E+02  0.8160E+02
    -12.729  0.1337E+01  0.8178E+02
    -12.597  0.4709E+01  0.8240E+02
    -12.466  0.1757E+02  0.8471E+02
    -12.334  0.1092E+02  0.8615E+02
    -12.202  0.3666E+01  0.8663E+02
    -12.071  0.3101E+01  0.8704E+02
    -11.939  0.1224E+02  0.8865E+02
    -11.807  0.3529E+01  0.8912E+02
    -11.676  0.1566E+02  0.9118E+02
    -11.544  0.1830E+02  0.9359E+02
    -11.412  0.1330E+02  0.9534E+02
    -11.281  0.8452E+01  0.9645E+02
    -11.149  0.5486E+01  0.9717E+02
    -11.017  0.7985E+01  0.9822E+02
    -10.886  0.1269E+02  0.9989E+02
    -10.754  0.1716E+02  0.1022E+03
    -10.622  0.1851E+01  0.1024E+03
    -10.491  0.2053E+02  0.1051E+03
    -10.359  0.4121E+01  0.1056E+03
    -10.227  0.2422E+02  0.1088E+03
    -10.096  0.2559E+02  0.1122E+03
     -9.964  0.1860E+02  0.1147E+03
     -9.832  0.1432E+02  0.1165E+03
     -9.701  0.1758E+02  0.1189E+03
     -9.569  0.2738E+02  0.1225E+03
     -9.437  0.2127E+02  0.1253E+03
     -9.306  0.2722E+02  0.1288E+03
     -9.174  0.2322E+02  0.1319E+03
     -9.042  0.2884E+02  0.1357E+03
     -8.911  0.2013E+02  0.1383E+03
     -8.779  0.1785E+02  0.1407E+03
     -8.647  0.2310E+02  0.1437E+03
     -8.516  0.1754E+02  0.1460E+03
     -8.384  0.1637E+02  0.1482E+03
     -8.252  0.1533E+02  0.1502E+03
     -8.121  0.1593E+02  0.1523E+03
     -7.989  0.2857E+02  0.1561E+03
     -7.857  0.1630E+02  0.1582E+03
     -7.726  0.1668E+02  0.1604E+03
     -7.594  0.7958E+01  0.1615E+03
     -7.462  0.2328E+01  0.1618E+03
     -7.331  0.1715E+02  0.1640E+03
     -7.199  0.3241E+02  0.1683E+03
     -7.067  0.1605E+02  0.1704E+03
     -6.935  0.4251E+01  0.1710E+03
     -6.804  0.1939E+02  0.1735E+03
     -6.672  0.1242E+02  0.1752E+03
     -6.540  0.1622E+02  0.1773E+03
     -6.409  0.7237E+01  0.1783E+03
     -6.277  0.1235E+02  0.1799E+03
     -6.145  0.1537E+02  0.1819E+03
     -6.014  0.1380E+02  0.1837E+03
     -5.882  0.1996E+02  0.1864E+03
     -5.750  0.7800E+01  0.1874E+03
     -5.619  0.1402E+02  0.1892E+03
     -5.487  0.3145E+01  0.1896E+03
     -5.355  0.7724E+01  0.1907E+03
     -5.224  0.8896E+01  0.1918E+03
     -5.092  0.1147E+02  0.1933E+03
     -4.960  0.1801E+02  0.1957E+03
     -4.829  0.1577E+02  0.1978E+03
     -4.697  0.3207E+01  0.1982E+03
     -4.565  0.1045E+00  0.1982E+03
     -4.434  0.2392E-04  0.1982E+03
     -4.302  0.2604E+01  0.1986E+03
     -4.170  0.1745E+02  0.2009E+03
     -4.039  0.5256E+01  0.2016E+03
     -3.907  0.1152E-02  0.2016E+03
     -3.775  0.3676E+00  0.2016E+03
     -3.644  0.2986E+01  0.2020E+03
     -3.512  0.2447E+00  0.2020E+03
     -3.380  0.4186E+01  0.2026E+03
     -3.249  0.1232E+02  0.2042E+03
     -3.117  0.1070E+02  0.2056E+03
     -2.985  0.2989E+01  0.2060E+03
     -2.854  0.2341E+01  0.2063E+03
     -2.722  0.9319E+01  0.2075E+03
     -2.590  0.1130E+00  0.2076E+03
     -2.459  0.7235E-01  0.2076E+03
     -2.327  0.3158E+01  0.2080E+03
     -2.195  0.2772E+01  0.2083E+03
     -2.064  0.7491E+00  0.2084E+03
     -1.932  0.1202E-04  0.2084E+03
     -1.800  0.1323E-07  0.2084E+03
     -1.669  0.1297E+00  0.2085E+03
     -1.537  0.9389E+01  0.2097E+03
     -1.405  0.1252E+02  0.2113E+03
     -1.273  0.3278E+01  0.2118E+03
     -1.142  0.1364E-03  0.2118E+03
     -1.010  0.1025E+01  0.2119E+03
     -0.878  0.1058E+02  0.2133E+03
     -0.747  0.2339E+02  0.2164E+03
     -0.615  0.1834E+02  0.2188E+03
     -0.483  0.5413E+01  0.2195E+03
     -0.352  0.3394E+00  0.2196E+03
     -0.220  0.4373E+01  0.2201E+03
     -0.088  0.1111E+02  0.2216E+03
      0.043  0.1066E+02  0.2230E+03
      0.175  0.9401E+00  0.2231E+03
      0.307  0.1559E+02  0.2252E+03
      0.438  0.8061E+01  0.2262E+03
      0.570  0.3252E+01  0.2267E+03
      0.702  0.1055E+02  0.2281E+03
      0.833  0.1730E+02  0.2303E+03
      0.965  0.6225E+01  0.2312E+03
      1.097  0.1072E+02  0.2326E+03
      1.228  0.1532E+02  0.2346E+03
      1.360  0.8114E+01  0.2357E+03
      1.492  0.1489E+02  0.2376E+03
      1.623  0.2294E+02  0.2406E+03
      1.755  0.1539E+02  0.2427E+03
      1.887  0.2773E+02  0.2463E+03
      2.018  0.8524E+01  0.2474E+03
      2.150  0.1575E+02  0.2495E+03
      2.282  0.2597E+02  0.2529E+03
      2.413  0.2904E+02  0.2567E+03
      2.545  0.7882E+01  0.2578E+03
      2.677  0.6106E+01  0.2586E+03
      2.808  0.8856E+01  0.2598E+03
      2.940  0.5450E+01  0.2605E+03
      3.072  0.9091E+01  0.2617E+03
      3.203  0.2745E+01  0.2620E+03
      3.335  0.4769E+01  0.2627E+03
      3.467  0.3857E-01  0.2627E+03
      3.598  0.2824E+01  0.2630E+03
      3.730  0.3924E+01  0.2636E+03
      3.862  0.2231E-02  0.2636E+03
      3.993  0.6417E-06  0.2636E+03
      4.125  0.2964E+00  0.2636E+03
      4.257  0.3049E+01  0.2640E+03
      4.389  0.3002E-01  0.2640E+03
      4.520  0.1855E-08  0.2640E+03
      4.652  0.0000E+00  0.2640E+03
      4.784  0.0000E+00  0.2640E+03
      4.915  0.0000E+00  0.2640E+03
      5.047  0.0000E+00  0.2640E+03
      5.179  0.0000E+00  0.2640E+03
      5.310  0.0000E+00  0.2640E+03
      5.442  0.0000E+00  0.2640E+03
      5.574  0.0000E+00  0.2640E+03
      5.705  0.0000E+00  0.2640E+03
      5.837  0.0000E+00  0.2640E+03
      5.969  0.0000E+00  0.2640E+03
