 vasp.5.4.4.18Apr17-6-g9f103f2a35 (build Aug 13 2022 23:40:43) complex          
  
 executed on             LinuxIFC date 2024.11.10  04:11:18
 running on   48 total cores
 distrk:  each k-point on   48 cores,    1 groups
 distr:  one band on NCORES_PER_BAND=   8 cores,    6 groups


--------------------------------------------------------------------------------------------------------


 INCAR:
 POTCAR:    PAW_PBE C 08Apr2002                   
 POTCAR:    PAW_PBE O 08Apr2002                   
 POTCAR:    PAW_PBE C 08Apr2002                   
   VRHFIN =C: s2p2                                                              
   LEXCH  = PE                                                                  
   EATOM  =   147.1560 eV,   10.8157 Ry                                         
                                                                                
   TITEL  = PAW_PBE C 08Apr2002                                                 
   LULTRA =        F    use ultrasoft PP ?                                      
   IUNSCR =        1    unscreen: 0-lin 1-nonlin 2-no                           
   RPACOR =    1.200    partial core radius                                     
   POMASS =   12.011; ZVAL   =    4.000    mass and valenz                      
   RCORE  =    1.500    outmost cutoff radius                                   
   RWIGS  =    1.630; RWIGS  =    0.863    wigner-seitz radius (au A)           
   ENMAX  =  400.000; ENMIN  =  300.000 eV                                      
   ICORE  =        2    local potential                                         
   LCOR   =        T    correct aug charges                                     
   LPAW   =        T    paw PP                                                  
   EAUG   =  644.873                                                            
   DEXC   =    0.000                                                            
   RMAX   =    1.529    core radius for proj-oper                               
   RAUG   =    1.300    factor for augmentation sphere                          
   RDEP   =    1.501    radius for radial grids                                 
   RDEPT  =    1.300    core radius for aug-charge                              
                                                                                
   Atomic configuration                                                         
    4 entries                                                                   
     n  l   j            E        occ.                                          
     1  0  0.50      -273.3789   2.0000                                         
     2  0  0.50       -13.7508   2.0000                                         
     2  1  0.50        -5.2854   2.0000                                         
     3  2  1.50        -5.4423   0.0000                                         
   Description                                                                  
     l       E           TYP  RCUT    TYP  RCUT                                 
     0    -13.7508458     23  1.200                                             
     0     -8.2022199     23  1.200                                             
     1     -5.2854383     23  1.500                                             
     1     34.0145650     23  1.500                                             
     2     -5.4423304      7  1.500                                             
  local pseudopotential read in
  partial core-charges read in
  partial kinetic energy density read in
  atomic valenz-charges read in
  non local Contribution for L=           0  read in
    real space projection operators read in
  non local Contribution for L=           0  read in
    real space projection operators read in
  non local Contribution for L=           1  read in
    real space projection operators read in
  non local Contribution for L=           1  read in
    real space projection operators read in
    PAW grid and wavefunctions read in
 
   number of l-projection  operators is LMAX  =           4
   number of lm-projection operators is LMMAX =           8
 
 POTCAR:    PAW_PBE O 08Apr2002                   
   VRHFIN =O: s2p4                                                              
   LEXCH  = PE                                                                  
   EATOM  =   432.3788 eV,   31.7789 Ry                                         
                                                                                
   TITEL  = PAW_PBE O 08Apr2002                                                 
   LULTRA =        F    use ultrasoft PP ?                                      
   IUNSCR =        1    unscreen: 0-lin 1-nonlin 2-no                           
   RPACOR =    1.200    partial core radius                                     
   POMASS =   16.000; ZVAL   =    6.000    mass and valenz                      
   RCORE  =    1.520    outmost cutoff radius                                   
   RWIGS  =    1.550; RWIGS  =    0.820    wigner-seitz radius (au A)           
   ENMAX  =  400.000; ENMIN  =  300.000 eV                                      
   ICORE  =        2    local potential                                         
   LCOR   =        T    correct aug charges                                     
   LPAW   =        T    paw PP                                                  
   EAUG   =  605.392                                                            
   DEXC   =    0.000                                                            
   RMAX   =    1.553    core radius for proj-oper                               
   RAUG   =    1.300    factor for augmentation sphere                          
   RDEP   =    1.550    radius for radial grids                                 
   RDEPT  =    1.329    core radius for aug-charge                              
                                                                                
   Atomic configuration                                                         
    4 entries                                                                   
     n  l   j            E        occ.                                          
     1  0  0.50      -514.6923   2.0000                                         
     2  0  0.50       -23.9615   2.0000                                         
     2  1  0.50        -9.0305   4.0000                                         
     3  2  1.50        -9.5241   0.0000                                         
   Description                                                                  
     l       E           TYP  RCUT    TYP  RCUT                                 
     0    -23.9615318     23  1.200                                             
     0     -9.5240782     23  1.200                                             
     1     -9.0304911     23  1.520                                             
     1      8.1634956     23  1.520                                             
     2     -9.5240782      7  1.500                                             
  local pseudopotential read in
  partial core-charges read in
  partial kinetic energy density read in
  kinetic energy density of atom read in
  atomic valenz-charges read in
  non local Contribution for L=           0  read in
    real space projection operators read in
  non local Contribution for L=           0  read in
    real space projection operators read in
  non local Contribution for L=           1  read in
    real space projection operators read in
  non local Contribution for L=           1  read in
    real space projection operators read in
    PAW grid and wavefunctions read in
 
   number of l-projection  operators is LMAX  =           4
   number of lm-projection operators is LMMAX =           8
 

 ----------------------------------------------------------------------------- 
|                                                                             |
|  ADVICE TO THIS USER RUNNING 'VASP/VAMP'   (HEAR YOUR MASTER'S VOICE ...):  |
|                                                                             |
|      You have a (more or less) 'large supercell' and for larger cells       |
|      it might be more efficient to use real space projection opertators     |
|      So try LREAL= Auto  in the INCAR   file.                               |
|      Mind:          For very  accurate calculation you might also keep the  |
|      reciprocal projection scheme          (i.e. LREAL=.FALSE.)             |
|                                                                             |
 ----------------------------------------------------------------------------- 

  PAW_PBE C 08Apr2002                   :
 energy of atom  1       EATOM= -147.1560
 kinetic energy error for atom=    0.0288 (will be added to EATOM!!)
  PAW_PBE O 08Apr2002                   :
 energy of atom  2       EATOM= -432.3788
 kinetic energy error for atom=    0.1156 (will be added to EATOM!!)
 
 
 POSCAR: generated by phonopy                    
  positions in direct lattice
  No initial velocities read in
 exchange correlation table for  LEXCH =        8
   RHO(1)=    0.500       N(1)  =     2000
   RHO(2)=  100.500       N(2)  =     4000

 VTST: version 3.2, (02/03/18)

 CHAIN: initializing optimizer
 
 OPT: Using VASP Dynamics algorithm
 CHAIN: Read ICHAIN            0
 
 POSCAR: generated by phonopy                    
  positions in direct lattice
  No initial velocities read in
 


--------------------------------------------------------------------------------------------------------


 ion  position               nearest neighbor table
   1  0.000  0.000  0.418-  26 1.42  30 1.42  46 1.42
   2  0.200  0.000  0.418-  27 1.42  26 1.42  47 1.42
   3  0.400  0.000  0.418-  27 1.42  48 1.42  28 1.43
   4  0.600  0.000  0.418-  28 1.41  29 1.42  49 1.42
   5  0.800  0.000  0.418-  30 1.42  29 1.42  50 1.42
   6  0.000  0.200  0.418-  31 1.42  35 1.42  26 1.42
   7  0.200  0.200  0.418-  32 1.42  31 1.42  27 1.42
   8  0.400  0.200  0.418-  33 1.42  32 1.42  28 1.42
   9  0.600  0.200  0.418-  34 1.42  33 1.42  29 1.42
  10  0.800  0.200  0.418-  35 1.42  34 1.42  30 1.42
  11  0.000  0.400  0.418-  36 1.42  40 1.42  31 1.42
  12  0.200  0.400  0.418-  37 1.42  36 1.42  32 1.42
  13  0.400  0.400  0.418-  51 1.00  38 1.42  37 1.42  33 1.42
  14  0.600  0.400  0.418-  39 1.42  38 1.42  34 1.42
  15  0.800  0.400  0.418-  40 1.42  39 1.42  35 1.42
  16  0.000  0.600  0.418-  41 1.42  45 1.42  36 1.42
  17  0.200  0.600  0.418-  42 1.42  41 1.42  37 1.42
  18  0.400  0.600  0.418-  43 1.42  42 1.42  38 1.42
  19  0.600  0.600  0.418-  44 1.42  43 1.42  39 1.42
  20  0.800  0.600  0.418-  45 1.42  44 1.42  40 1.42
  21  0.000  0.800  0.418-  46 1.42  50 1.42  41 1.42
  22  0.200  0.800  0.418-  47 1.42  46 1.42  42 1.42
  23  0.400  0.800  0.418-  48 1.42  47 1.42  43 1.42
  24  0.600  0.800  0.418-  49 1.42  48 1.42  44 1.42
  25  0.800  0.800  0.418-  50 1.42  49 1.42  45 1.42
  26  0.067  0.067  0.418-   1 1.42   2 1.42   6 1.42
  27  0.267  0.067  0.418-   2 1.42   3 1.42   7 1.42
  28  0.467  0.067  0.418-   4 1.41   8 1.42   3 1.43
  29  0.667  0.067  0.418-   4 1.42   5 1.42   9 1.42
  30  0.867  0.067  0.418-   5 1.42   1 1.42  10 1.42
  31  0.067  0.267  0.418-   6 1.42   7 1.42  11 1.42
  32  0.267  0.267  0.418-   7 1.42   8 1.42  12 1.42
  33  0.467  0.267  0.418-   8 1.42   9 1.42  13 1.42  51 1.74
  34  0.667  0.267  0.418-   9 1.42  10 1.42  14 1.42
  35  0.867  0.267  0.418-  10 1.42   6 1.42  15 1.42
  36  0.067  0.467  0.418-  11 1.42  12 1.42  16 1.42
  37  0.267  0.467  0.418-  12 1.42  13 1.42  17 1.42  51 1.74
  38  0.467  0.467  0.418-  13 1.42  14 1.42  18 1.42  51 1.74
  39  0.667  0.467  0.418-  14 1.42  15 1.42  19 1.42
  40  0.867  0.467  0.418-  15 1.42  11 1.42  20 1.42
  41  0.067  0.667  0.418-  16 1.42  17 1.42  21 1.42
  42  0.267  0.667  0.418-  17 1.42  18 1.42  22 1.42
  43  0.467  0.667  0.418-  18 1.42  19 1.42  23 1.42
  44  0.667  0.667  0.418-  19 1.42  20 1.42  24 1.42
  45  0.867  0.667  0.418-  20 1.42  16 1.42  25 1.42
  46  0.067  0.867  0.418-  21 1.42  22 1.42   1 1.42
  47  0.267  0.867  0.418-  22 1.42  23 1.42   2 1.42
  48  0.467  0.867  0.418-  23 1.42  24 1.42   3 1.42
  49  0.667  0.867  0.418-  24 1.42  25 1.42   4 1.42
  50  0.867  0.867  0.418-  25 1.42  21 1.42   5 1.42
  51  0.400  0.400  0.468-  13 1.00  38 1.74  37 1.74  33 1.74
 
  LATTYP: Found a hexagonal cell.
 ALAT       =    12.2999994816
 C/A-ratio  =     1.6260163287
  
  Lattice vectors:
  
 A1 = (   6.1499993860, -10.6521122225,   0.0000000000)
 A2 = ( -12.3000001905,   0.0000000000,   0.0000000000)
 A3 = (   0.0000000000,   0.0000000000, -20.0000000000)


Analysis of symmetry for initial positions (statically):
=====================================================================
 Subroutine PRICEL returns:
 Original cell was already a primitive cell.
 

 Routine SETGRP: Setting up the symmetry group for a 
 hexagonal supercell.


 Subroutine GETGRP returns: Found  1 space group operations
 (whereof  1 operations were pure point group operations)
 out of a pool of 24 trial point group operations.


The static configuration has the point symmetry C_1 .


Analysis of symmetry for dynamics (positions and initial velocities):
=====================================================================
 Subroutine PRICEL returns:
 Original cell was already a primitive cell.
 

 Routine SETGRP: Setting up the symmetry group for a 
 hexagonal supercell.


 Subroutine GETGRP returns: Found  1 space group operations
 (whereof  1 operations were pure point group operations)
 out of a pool of 24 trial point group operations.


The dynamic configuration has the point symmetry C_1 .


 Subroutine INISYM returns: Found  1 space group operations
 (whereof  1 operations are pure point group operations),
 and found     1 'primitive' translations

 
 
 KPOINTS: K-POINTS                                

Automatic generation of k-mesh.
Space group operators:
 irot       det(A)        alpha          n_x          n_y          n_z        tau_x        tau_y        tau_z
    1     1.000000     0.000000     1.000000     0.000000     0.000000     0.000000     0.000000     0.000000
 
 Subroutine IBZKPT returns following result:
 ===========================================
 
 Found      5 irreducible k-points:
 
 Following reciprocal coordinates:
            Coordinates               Weight
  0.000000  0.000000  0.000000      1.000000
  0.333333  0.000000  0.000000      2.000000
  0.000000  0.333333  0.000000      2.000000
  0.333333  0.333333  0.000000      2.000000
 -0.333333  0.333333  0.000000      2.000000
 
 Following cartesian coordinates:
            Coordinates               Weight
  0.000000  0.000000  0.000000      1.000000
  0.027100 -0.015646  0.000000      2.000000
  0.000000  0.031293  0.000000      2.000000
  0.027100  0.015646  0.000000      2.000000
 -0.027100  0.046939  0.000000      2.000000
 


--------------------------------------------------------------------------------------------------------




 Dimension of arrays:
   k-points           NKPTS =      5   k-points in BZ     NKDIM =      5   number of bands    NBANDS=    132
   number of dos      NEDOS =    301   number of ions     NIONS =     51
   non local maximal  LDIM  =      4   non local SUM 2l+1 LMDIM =      8
   total plane-waves  NPLWV = 896000
   max r-space proj   IRMAX =      1   max aug-charges    IRDMAX=  35685
   dimension x,y,z NGX =    80 NGY =   80 NGZ =  140
   dimension x,y,z NGXF=   160 NGYF=  160 NGZF=  280
   support grid    NGXF=   320 NGYF=  320 NGZF=  560
   ions per type =              50   1
   NGX,Y,Z   is equivalent  to a cutoff of  10.81, 10.81, 11.64 a.u.
   NGXF,Y,Z  is equivalent  to a cutoff of  21.63, 21.63, 23.27 a.u.

 SYSTEM =                                          
 POSCAR =  generated by phonopy                    

 Startparameter for this run:
   NWRITE =      2    write-flag & timer
   PREC   = accura    normal or accurate (medium, high low for compatibility)
   ISTART =      1    job   : 0-new  1-cont  2-samecut
   ICHARG =      1    charge: 1-file 2-atom 10-const
   ISPIN  =      1    spin polarized calculation?
   LNONCOLLINEAR =      F non collinear calculations
   LSORBIT =      F    spin-orbit coupling
   INIWAV =      1    electr: 0-lowe 1-rand  2-diag
   LASPH  =      F    aspherical Exc in radial PAW
   METAGGA=      F    non-selfconsistent MetaGGA calc.

 Electronic Relaxation 1
   ENCUT  =  400.0 eV  29.40 Ry    5.42 a.u.  20.06 20.06 32.61*2*pi/ulx,y,z
   ENINI  =  400.0     initial cutoff
   ENAUG  =  644.9 eV  augmentation charge cutoff
   NELM   =    300;   NELMIN=  2; NELMDL=  0     # of ELM steps 
   EDIFF  = 0.1E-04   stopping-criterion for ELM
   LREAL  =      F    real-space projection
   NLSPLINE    = F    spline interpolate recip. space projectors
   LCOMPAT=      F    compatible to vasp.4.4
   GGA_COMPAT  = T    GGA compatible to vasp.4.4-vasp.4.6
   LMAXPAW     = -100 max onsite density
   LMAXMIX     =    2 max onsite mixed and CHGCAR
   VOSKOWN=      0    Vosko Wilk Nusair interpolation
   ROPT   =    0.00000   0.00000
 Ionic relaxation
   EDIFFG = -.1E-02   stopping-criterion for IOM
   NSW    =      1    number of steps for IOM
   NBLOCK =      1;   KBLOCK =      1    inner block; outer block 
   IBRION =     -1    ionic relax: 0-MD 1-quasi-New 2-CG
   NFREE  =      0    steps in history (QN), initial steepest desc. (CG)
   ISIF   =      2    stress and relaxation
   IWAVPR =     10    prediction:  0-non 1-charg 2-wave 3-comb
   ISYM   =      2    0-nonsym 1-usesym 2-fastsym
   LCORR  =      T    Harris-Foulkes like correction to forces

   POTIM  = 0.5000    time-step for ionic-motion
   TEIN   =    0.0    initial temperature
   TEBEG  =    0.0;   TEEND  =   0.0 temperature during run
   SMASS  =  -3.00    Nose mass-parameter (am)
   estimated Nose-frequenzy (Omega)   =  0.10E-29 period in steps =****** mass=  -0.346E-26a.u.
   SCALEE = 1.0000    scale energy and forces
   NPACO  =    256;   APACO  = 16.0  distance and # of slots for P.C.
   PSTRESS=    0.0 pullay stress

  Mass of Ions in am
   POMASS =  12.01 16.00
  Ionic Valenz
   ZVAL   =   4.00  6.00
  Atomic Wigner-Seitz radii
   RWIGS  =  -1.00 -1.00
  virtual crystal weights 
   VCA    =   1.00  1.00
   NELECT =     206.0000    total number of electrons
   NUPDOWN=      -1.0000    fix difference up-down

 DOS related values:
   EMIN   =  10.00;   EMAX   =-10.00  energy-range for DOS
   EFERMI =   0.00
   ISMEAR =     0;   SIGMA  =   0.05  broadening in eV -4-tet -1-fermi 0-gaus

 Electronic relaxation 2 (details)
   IALGO  =     68    algorithm
   LDIAG  =      T    sub-space diagonalisation (order eigenvalues)
   LSUBROT=      F    optimize rotation matrix (better conditioning)
   TURBO    =      0    0=normal 1=particle mesh
   IRESTART =      0    0=no restart 2=restart with 2 vectors
   NREBOOT  =      0    no. of reboots
   NMIN     =      0    reboot dimension
   EREF     =   0.00    reference energy to select bands
   IMIX   =      4    mixing-type and parameters
     AMIX     =   0.40;   BMIX     =  1.00
     AMIX_MAG =   1.60;   BMIX_MAG =  1.00
     AMIN     =   0.10
     WC   =   100.;   INIMIX=   1;  MIXPRE=   1;  MAXMIX= -45

 Intra band minimization:
   WEIMIN = 0.0000     energy-eigenvalue tresh-hold
   EBREAK =  0.19E-07  absolut break condition
   DEPER  =   0.30     relativ break condition  

   TIME   =   0.40     timestep for ELM

  volume/ion in A,a.u.               =      51.38       346.73
  Fermi-wavevector in a.u.,A,eV,Ry     =   0.701305  1.325274  6.691736  0.491829
  Thomas-Fermi vector in A             =   1.785695
 
 Write flags
   LWAVE        =      F    write WAVECAR
   LDOWNSAMPLE  =      F    k-point downsampling of WAVECAR
   LCHARG       =      F    write CHGCAR
   LVTOT        =      F    write LOCPOT, total local potential
   LVHAR        =      F    write LOCPOT, Hartree potential only
   LELF         =      F    write electronic localiz. function (ELF)
   LORBIT       =      0    0 simple, 1 ext, 2 COOP (PROOUT), +10 PAW based schemes


 Dipole corrections
   LMONO  =      F    monopole corrections only (constant potential shift)
   LDIPOL =      F    correct potential (dipole corrections)
   IDIPOL =      0    1-x, 2-y, 3-z, 4-all directions 
   EPSILON=  1.0000000 bulk dielectric constant

 Exchange correlation treatment:
   GGA     =    --    GGA type
   LEXCH   =     8    internal setting for exchange type
   VOSKOWN=      0    Vosko Wilk Nusair interpolation
   LHFCALC =     F    Hartree Fock is set to
   LHFONE  =     F    Hartree Fock one center treatment
   AEXX    =    0.0000 exact exchange contribution

 Linear response parameters
   LEPSILON=     F    determine dielectric tensor
   LRPA    =     F    only Hartree local field effects (RPA)
   LNABLA  =     F    use nabla operator in PAW spheres
   LVEL    =     F    velocity operator in full k-point grid
   LINTERFAST=   F  fast interpolation
   KINTER  =     0    interpolate to denser k-point grid
   CSHIFT  =0.1000    complex shift for real part using Kramers Kronig
   OMEGAMAX=  -1.0    maximum frequency
   DEG_THRESHOLD= 0.2000000E-02 threshold for treating states as degnerate
   RTIME   =   -0.100 relaxation time in fs
  (WPLASMAI=    0.000 imaginary part of plasma frequency in eV, 0.658/RTIME)
   DFIELD  = 0.0000000 0.0000000 0.0000000 field for delta impulse in time
 
 Orbital magnetization related:
   ORBITALMAG=     F  switch on orbital magnetization
   LCHIMAG   =     F  perturbation theory with respect to B field
   DQ        =  0.001000  dq finite difference perturbation B field
   LLRAUG    =     F  two centre corrections for induced B field



--------------------------------------------------------------------------------------------------------


 Static calculation
 charge density and potential will be updated during run
 non-spin polarized calculation
 RMM-DIIS sequential band-by-band and
  variant of blocked Davidson during initial phase
 perform sub-space diagonalisation
    before iterative eigenvector-optimisation
 modified Broyden-mixing scheme, WC =      100.0
 initial mixing is a Kerker type mixing with AMIX =  0.4000 and BMIX =      1.0000
 Hartree-type preconditioning will be used
 using additional bands           29
 reciprocal scheme for non local part
 use partial core corrections
 calculate Harris-corrections to forces 
   (improved forces if not selfconsistent)
 use gradient corrections 
 use of overlap-Matrix (Vanderbilt PP)
 Gauss-broadening in eV      SIGMA  =   0.05


--------------------------------------------------------------------------------------------------------


  energy-cutoff  :      400.00
  volume of cell :     2620.42
      direct lattice vectors                 reciprocal lattice vectors
    12.300000191  0.000000000  0.000000000     0.081300812 -0.046939053  0.000000000
     6.150000804 10.652112223  0.000000000     0.000000000  0.093878095  0.000000000
     0.000000000  0.000000000 20.000000000     0.000000000  0.000000000  0.050000000

  length of vectors
    12.300000191 12.300000191 20.000000000     0.093878095  0.093878095  0.050000000


 
 old parameters found on file WAVECAR:
  energy-cutoff  :      400.00
  volume of cell :     2620.42
      direct lattice vectors                 reciprocal lattice vectors
    12.300000191  0.000000000  0.000000000     0.081300812 -0.046939053  0.000000000
     6.150000804 10.652112223  0.000000000     0.000000000  0.093878095  0.000000000
     0.000000000  0.000000000 20.000000000     0.000000000  0.000000000  0.050000000

  length of vectors

 
 k-points in units of 2pi/SCALE and weight: K-POINTS                                
   0.00000000  0.00000000  0.00000000       0.111
   0.02710027 -0.01564635  0.00000000       0.222
   0.00000000  0.03129270  0.00000000       0.222
   0.02710027  0.01564635  0.00000000       0.222
  -0.02710027  0.04693905  0.00000000       0.222
 
 k-points in reciprocal lattice and weights: K-POINTS                                
   0.00000000  0.00000000  0.00000000       0.111
   0.33333333  0.00000000  0.00000000       0.222
   0.00000000  0.33333333  0.00000000       0.222
   0.33333333  0.33333333  0.00000000       0.222
  -0.33333333  0.33333333  0.00000000       0.222
 
 position of ions in fractional coordinates (direct lattice) 
   0.00000000  0.00000000  0.41799748
   0.20000000  0.00000000  0.41799748
   0.40000000  0.00000000  0.41799748
   0.60000000  0.00000000  0.41799748
   0.80000000  0.00000000  0.41799748
   0.00000000  0.20000000  0.41799748
   0.20000000  0.20000000  0.41799748
   0.40000000  0.20000000  0.41799748
   0.60000000  0.20000000  0.41799748
   0.80000000  0.20000000  0.41799748
   0.00000000  0.40000000  0.41799748
   0.20000000  0.40000000  0.41799748
   0.40000000  0.40000000  0.41799748
   0.60000000  0.40000000  0.41799748
   0.80000000  0.40000000  0.41799748
   0.00000000  0.60000000  0.41799748
   0.20000000  0.60000000  0.41799748
   0.40000000  0.60000000  0.41799748
   0.60000000  0.60000000  0.41799748
   0.80000000  0.60000000  0.41799748
   0.00000000  0.80000000  0.41799748
   0.20000000  0.80000000  0.41799748
   0.40000000  0.80000000  0.41799748
   0.60000000  0.80000000  0.41799748
   0.80000000  0.80000000  0.41799748
   0.06666667  0.06666660  0.41800609
   0.26666667  0.06666660  0.41800609
   0.46747968  0.06666660  0.41800609
   0.66666667  0.06666660  0.41800609
   0.86666667  0.06666660  0.41800609
   0.06666667  0.26666660  0.41800609
   0.26666667  0.26666660  0.41800609
   0.46666667  0.26666660  0.41800609
   0.66666667  0.26666660  0.41800609
   0.86666667  0.26666660  0.41800609
   0.06666667  0.46666660  0.41800609
   0.26666667  0.46666660  0.41800609
   0.46666667  0.46666660  0.41800609
   0.66666667  0.46666660  0.41800609
   0.86666667  0.46666660  0.41800609
   0.06666667  0.66666660  0.41800609
   0.26666667  0.66666660  0.41800609
   0.46666667  0.66666660  0.41800609
   0.66666667  0.66666660  0.41800609
   0.86666667  0.66666660  0.41800609
   0.06666667  0.86666660  0.41800609
   0.26666667  0.86666660  0.41800609
   0.46666667  0.86666660  0.41800609
   0.66666667  0.86666660  0.41800609
   0.86666667  0.86666660  0.41800609
   0.40000000  0.40000000  0.46800609
 
 position of ions in cartesian coordinates  (Angst):
   0.00000000  0.00000000  8.35994958
   2.46000004  0.00000000  8.35994958
   4.92000008  0.00000000  8.35994958
   7.38000011  0.00000000  8.35994958
   9.84000015  0.00000000  8.35994958
   1.23000016  2.13042244  8.35994958
   3.69000020  2.13042244  8.35994958
   6.15000024  2.13042244  8.35994958
   8.61000028  2.13042244  8.35994958
  11.07000031  2.13042244  8.35994958
   2.46000032  4.26084489  8.35994958
   4.92000036  4.26084489  8.35994958
   7.38000040  4.26084489  8.35994958
   9.84000044  4.26084489  8.35994958
  12.30000047  4.26084489  8.35994958
   3.69000048  6.39126733  8.35994958
   6.15000052  6.39126733  8.35994958
   8.61000056  6.39126733  8.35994958
  11.07000060  6.39126733  8.35994958
  13.53000064  6.39126733  8.35994958
   4.92000064  8.52168978  8.35994958
   7.38000068  8.52168978  8.35994958
   9.84000072  8.52168978  8.35994958
  12.30000076  8.52168978  8.35994958
  14.76000080  8.52168978  8.35994958
   1.22999970  0.71014014  8.36012184
   3.68999974  0.71014014  8.36012184
   6.15999977  0.71014014  8.36012184
   8.60999981  0.71014014  8.36012184
  11.06999985  0.71014014  8.36012184
   2.45999986  2.84056258  8.36012184
   4.91999990  2.84056258  8.36012184
   7.37999994  2.84056258  8.36012184
   9.83999997  2.84056258  8.36012184
  12.30000001  2.84056258  8.36012184
   3.69000002  4.97098503  8.36012184
   6.15000006  4.97098503  8.36012184
   8.61000010  4.97098503  8.36012184
  11.07000013  4.97098503  8.36012184
  13.53000017  4.97098503  8.36012184
   4.92000018  7.10140747  8.36012184
   7.38000022  7.10140747  8.36012184
   9.84000026  7.10140747  8.36012184
  12.30000030  7.10140747  8.36012184
  14.76000033  7.10140747  8.36012184
   6.15000034  9.23182991  8.36012184
   8.61000038  9.23182991  8.36012184
  11.07000042  9.23182991  8.36012184
  13.53000046  9.23182991  8.36012184
  15.99000049  9.23182991  8.36012184
   7.38000040  4.26084489  9.36012184
 


--------------------------------------------------------------------------------------------------------


 k-point  1 :   0.0000 0.0000 0.0000  plane waves:   47639
 k-point  2 :   0.3333 0.0000 0.0000  plane waves:   47601
 k-point  3 :   0.0000 0.3333 0.0000  plane waves:   47601
 k-point  4 :   0.3333 0.3333 0.0000  plane waves:   47601
 k-point  5 :  -0.3333 0.3333 0.0000  plane waves:   47598

 maximum and minimum number of plane-waves per node :      5975     5928

 maximum number of plane-waves:     47639
 maximum index in each direction: 
   IXMAX=   20   IYMAX=   20   IZMAX=   32
   IXMIN=  -20   IYMIN=  -20   IZMIN=  -32


 parallel 3D FFT for wavefunctions:
    minimum data exchange during FFTs selected (reduces bandwidth)
 parallel 3D FFT for charge:
    minimum data exchange during FFTs selected (reduces bandwidth)


 total amount of memory used by VASP MPI-rank0    90113. kBytes
=======================================================================

   base      :      30000. kBytes
   nonl-proj :       8674. kBytes
   fftplans  :      26248. kBytes
   grid      :      14579. kBytes
   one-center:         21. kBytes
   wavefun   :      10591. kBytes
 
     INWAV:  cpu time    0.8674: real time    0.8679
 Broyden mixing: mesh for mixing (old mesh)
   NGX = 41   NGY = 41   NGZ = 65
  (NGX  =160   NGY  =160   NGZ  =280)
  gives a total of 109265 points

 initial charge density was supplied:
 number of electron     206.0000000 magnetization 
 keeping initial charge density in first step


--------------------------------------------------------------------------------------------------------


 Maximum index for augmentation-charges         1119 (set IRDMAX)


--------------------------------------------------------------------------------------------------------


 First call to EWALD:  gamma=   0.129
 Maximum number of real-space cells 3x 3x 2
 Maximum number of reciprocal cells 3x 3x 4

    FEWALD:  cpu time    0.0014: real time    0.0033


--------------------------------------- Iteration      1(   1)  ---------------------------------------


    POTLOK:  cpu time    0.1065: real time    0.1171
    SETDIJ:  cpu time    0.0826: real time    0.0840
     EDDAV:  cpu time    4.1064: real time    4.1099
       DOS:  cpu time    0.0005: real time    0.0005
    CHARGE:  cpu time    0.3929: real time    0.3933
    MIXING:  cpu time    0.0054: real time    0.0055
    --------------------------------------------
      LOOP:  cpu time    4.6944: real time    4.7105

 eigenvalue-minimisations  :  1356
 total energy-change (2. order) :-0.4532952E+03  (-0.2841559E+02)
 number of electron     206.0000000 magnetization 
 augmentation part        5.5095033 magnetization 

 Broyden mixing:
  rms(total) = 0.49745E-01    rms(broyden)= 0.49714E-01
  rms(prec ) = 0.51177E-01
  weight for this iteration     100.00

 Free energy of the ion-electron system (eV)
  ---------------------------------------------------
  alpha Z        PSCENC =        82.54348252
  Ewald energy   TEWEN  =     34516.60912704
  -Hartree energ DENC   =    -41034.91467763
  -exchange      EXHF   =         0.00000000
  -V(xc)+E(xc)   XCENC  =       721.38016886
  PAW double counting   =     22781.19595426   -22817.52509957
  entropy T*S    EENTRO =        -0.00050358
  eigenvalues    EBANDS =     -2491.20801908
  atomic energy  EATOM  =      7788.62438962
  Solvation  Ediel_sol  =         0.00000000
  ---------------------------------------------------
  free energy    TOTEN  =      -453.29517756 eV

  energy without entropy =     -453.29467398  energy(sigma->0) =     -453.29492577


--------------------------------------------------------------------------------------------------------




--------------------------------------- Iteration      1(   2)  ---------------------------------------


    POTLOK:  cpu time    0.0974: real time    0.0987
    SETDIJ:  cpu time    0.0803: real time    0.0818
    EDDIAG:  cpu time    0.8731: real time    0.8736
  RMM-DIIS:  cpu time    3.7577: real time    3.7597
    ORTHCH:  cpu time    0.0413: real time    0.0416
       DOS:  cpu time    0.0003: real time    0.0003
    CHARGE:  cpu time    0.3911: real time    0.3915
    MIXING:  cpu time    0.0054: real time    0.0054
    --------------------------------------------
      LOOP:  cpu time    5.2466: real time    5.2527

 eigenvalue-minimisations  :  1420
 total energy-change (2. order) :-0.9878723E+00  (-0.9902727E+00)
 number of electron     206.0000000 magnetization 
 augmentation part        5.5408737 magnetization 

 Broyden mixing:
  rms(total) = 0.20479E-01    rms(broyden)= 0.20424E-01
  rms(prec ) = 0.21850E-01
  weight for this iteration     100.00

 eigenvalues of (default mixing * dielectric matrix)
  average eigenvalue GAMMA=   0.7400
  0.7400

 Free energy of the ion-electron system (eV)
  ---------------------------------------------------
  alpha Z        PSCENC =        82.54348252
  Ewald energy   TEWEN  =     34516.60912704
  -Hartree energ DENC   =    -41032.39575235
  -exchange      EXHF   =         0.00000000
  -V(xc)+E(xc)   XCENC  =       721.27318176
  PAW double counting   =     22842.35443862   -22878.63243101
  entropy T*S    EENTRO =        -0.00009445
  eigenvalues    EBANDS =     -2494.65939161
  atomic energy  EATOM  =      7788.62438962
  Solvation  Ediel_sol  =         0.00000000
  ---------------------------------------------------
  free energy    TOTEN  =      -454.28304986 eV

  energy without entropy =     -454.28295541  energy(sigma->0) =     -454.28300264


--------------------------------------------------------------------------------------------------------




--------------------------------------- Iteration      1(   3)  ---------------------------------------


    POTLOK:  cpu time    0.1066: real time    0.1094
    SETDIJ:  cpu time    0.0798: real time    0.0813
    EDDIAG:  cpu time    0.8755: real time    0.8761
  RMM-DIIS:  cpu time    4.2254: real time    4.2273
    ORTHCH:  cpu time    0.0635: real time    0.0635
       DOS:  cpu time    0.0004: real time    0.0004
    CHARGE:  cpu time    0.3892: real time    0.3896
    MIXING:  cpu time    0.0042: real time    0.0042
    --------------------------------------------
      LOOP:  cpu time    5.7446: real time    5.7517

 eigenvalue-minimisations  :  1580
 total energy-change (2. order) :-0.5228465E-01  (-0.5854682E-01)
 number of electron     206.0000000 magnetization 
 augmentation part        5.5434309 magnetization 

 Broyden mixing:
  rms(total) = 0.15484E-01    rms(broyden)= 0.15470E-01
  rms(prec ) = 0.16042E-01
  weight for this iteration     100.00

 eigenvalues of (default mixing * dielectric matrix)
  average eigenvalue GAMMA=   0.6848
  0.6848  0.6848

 Free energy of the ion-electron system (eV)
  ---------------------------------------------------
  alpha Z        PSCENC =        82.54348252
  Ewald energy   TEWEN  =     34516.60912704
  -Hartree energ DENC   =    -41033.08752211
  -exchange      EXHF   =         0.00000000
  -V(xc)+E(xc)   XCENC  =       721.30543699
  PAW double counting   =     22831.06085320   -22867.35351785
  entropy T*S    EENTRO =        -0.00012244
  eigenvalues    EBANDS =     -2494.03746149
  atomic energy  EATOM  =      7788.62438962
  Solvation  Ediel_sol  =         0.00000000
  ---------------------------------------------------
  free energy    TOTEN  =      -454.33533451 eV

  energy without entropy =     -454.33521207  energy(sigma->0) =     -454.33527329


--------------------------------------------------------------------------------------------------------




--------------------------------------- Iteration      1(   4)  ---------------------------------------


    POTLOK:  cpu time    0.0974: real time    0.0984
    SETDIJ:  cpu time    0.0796: real time    0.0811
    EDDIAG:  cpu time    0.8702: real time    0.8709
  RMM-DIIS:  cpu time    4.1497: real time    4.1534
    ORTHCH:  cpu time    0.0412: real time    0.0414
       DOS:  cpu time    0.0004: real time    0.0004
    CHARGE:  cpu time    0.3901: real time    0.3901
    MIXING:  cpu time    0.0045: real time    0.0045
    --------------------------------------------
      LOOP:  cpu time    5.6331: real time    5.6401

 eigenvalue-minimisations  :  1584
 total energy-change (2. order) :-0.3851443E-02  (-0.4046400E-02)
 number of electron     206.0000000 magnetization 
 augmentation part        5.5459551 magnetization 

 Broyden mixing:
  rms(total) = 0.15259E-01    rms(broyden)= 0.15258E-01
  rms(prec ) = 0.15740E-01
  weight for this iteration     100.00

 eigenvalues of (default mixing * dielectric matrix)
  average eigenvalue GAMMA=   0.9907
  1.2108  1.2108  0.5504

 Free energy of the ion-electron system (eV)
  ---------------------------------------------------
  alpha Z        PSCENC =        82.54348252
  Ewald energy   TEWEN  =     34516.60912704
  -Hartree energ DENC   =    -41033.43011141
  -exchange      EXHF   =         0.00000000
  -V(xc)+E(xc)   XCENC  =       721.32078809
  PAW double counting   =     22822.25793971   -22858.55832809
  entropy T*S    EENTRO =        -0.00010617
  eigenvalues    EBANDS =     -2493.70636726
  atomic energy  EATOM  =      7788.62438962
  Solvation  Ediel_sol  =         0.00000000
  ---------------------------------------------------
  free energy    TOTEN  =      -454.33918595 eV

  energy without entropy =     -454.33907978  energy(sigma->0) =     -454.33913286


--------------------------------------------------------------------------------------------------------




--------------------------------------- Iteration      1(   5)  ---------------------------------------


    POTLOK:  cpu time    0.0978: real time    0.0981
    SETDIJ:  cpu time    0.0800: real time    0.0800
    EDDIAG:  cpu time    0.8712: real time    0.8715
  RMM-DIIS:  cpu time    3.9759: real time    3.9889
    ORTHCH:  cpu time    0.0415: real time    0.0416
       DOS:  cpu time    0.0003: real time    0.0003
    CHARGE:  cpu time    0.3904: real time    0.3910
    MIXING:  cpu time    0.0048: real time    0.0048
    --------------------------------------------
      LOOP:  cpu time    5.4619: real time    5.4762

 eigenvalue-minimisations  :  1510
 total energy-change (2. order) :-0.1052612E-03  (-0.3192469E-03)
 number of electron     206.0000000 magnetization 
 augmentation part        5.5449136 magnetization 

 Broyden mixing:
  rms(total) = 0.60543E-02    rms(broyden)= 0.60533E-02
  rms(prec ) = 0.62143E-02
  weight for this iteration     100.00

 eigenvalues of (default mixing * dielectric matrix)
  average eigenvalue GAMMA=   1.1601
  1.5212  1.5212  0.5653  1.0325

 Free energy of the ion-electron system (eV)
  ---------------------------------------------------
  alpha Z        PSCENC =        82.54348252
  Ewald energy   TEWEN  =     34516.60912704
  -Hartree energ DENC   =    -41034.34782327
  -exchange      EXHF   =         0.00000000
  -V(xc)+E(xc)   XCENC  =       721.35919739
  PAW double counting   =     22794.89117683   -22831.21142933
  entropy T*S    EENTRO =        -0.00011012
  eigenvalues    EBANDS =     -2492.80730188
  atomic energy  EATOM  =      7788.62438962
  Solvation  Ediel_sol  =         0.00000000
  ---------------------------------------------------
  free energy    TOTEN  =      -454.33929121 eV

  energy without entropy =     -454.33918109  energy(sigma->0) =     -454.33923615


--------------------------------------------------------------------------------------------------------




--------------------------------------- Iteration      1(   6)  ---------------------------------------


    POTLOK:  cpu time    0.0982: real time    0.1003
    SETDIJ:  cpu time    0.0799: real time    0.0814
    EDDIAG:  cpu time    0.8579: real time    0.8722
  RMM-DIIS:  cpu time    4.0072: real time    4.0631
    ORTHCH:  cpu time    0.0415: real time    0.0415
       DOS:  cpu time    0.0004: real time    0.0004
    CHARGE:  cpu time    0.3798: real time    0.3901
    MIXING:  cpu time    0.0045: real time    0.0045
    --------------------------------------------
      LOOP:  cpu time    5.4694: real time    5.5534

 eigenvalue-minimisations  :  1533
 total energy-change (2. order) :-0.2681361E-04  (-0.4875678E-04)
 number of electron     206.0000000 magnetization 
 augmentation part        5.5443087 magnetization 

 Broyden mixing:
  rms(total) = 0.15156E-02    rms(broyden)= 0.15139E-02
  rms(prec ) = 0.15768E-02
  weight for this iteration     100.00

 eigenvalues of (default mixing * dielectric matrix)
  average eigenvalue GAMMA=   1.2133
  2.1403  1.2096  1.2096  0.9427  0.5643

 Free energy of the ion-electron system (eV)
  ---------------------------------------------------
  alpha Z        PSCENC =        82.54348252
  Ewald energy   TEWEN  =     34516.60912704
  -Hartree energ DENC   =    -41034.99691672
  -exchange      EXHF   =         0.00000000
  -V(xc)+E(xc)   XCENC  =       721.38624782
  PAW double counting   =     22775.51352491   -22811.84684064
  entropy T*S    EENTRO =        -0.00011146
  eigenvalues    EBANDS =     -2492.17222111
  atomic energy  EATOM  =      7788.62438962
  Solvation  Ediel_sol  =         0.00000000
  ---------------------------------------------------
  free energy    TOTEN  =      -454.33931802 eV

  energy without entropy =     -454.33920656  energy(sigma->0) =     -454.33926229


--------------------------------------------------------------------------------------------------------




--------------------------------------- Iteration      1(   7)  ---------------------------------------


    POTLOK:  cpu time    0.0981: real time    0.0982
    SETDIJ:  cpu time    0.0798: real time    0.0798
    EDDIAG:  cpu time    0.8751: real time    0.8893
  RMM-DIIS:  cpu time    2.9063: real time    2.9392
    ORTHCH:  cpu time    0.0419: real time    0.0419
       DOS:  cpu time    0.0003: real time    0.0003
    --------------------------------------------
      LOOP:  cpu time    4.0015: real time    4.0487

 eigenvalue-minimisations  :  1030
 total energy-change (2. order) :-0.6882077E-05  (-0.2160423E-05)
 number of electron     206.0000000 magnetization 
 augmentation part        5.5443087 magnetization 

 Free energy of the ion-electron system (eV)
  ---------------------------------------------------
  alpha Z        PSCENC =        82.54348252
  Ewald energy   TEWEN  =     34516.60912704
  -Hartree energ DENC   =    -41035.00062068
  -exchange      EXHF   =         0.00000000
  -V(xc)+E(xc)   XCENC  =       721.38594205
  PAW double counting   =     22777.00895563   -22813.34141985
  entropy T*S    EENTRO =        -0.00011243
  eigenvalues    EBANDS =     -2492.16906881
  atomic energy  EATOM  =      7788.62438962
  Solvation  Ediel_sol  =         0.00000000
  ---------------------------------------------------
  free energy    TOTEN  =      -454.33932491 eV

  energy without entropy =     -454.33921248  energy(sigma->0) =     -454.33926869


--------------------------------------------------------------------------------------------------------




 average (electrostatic) potential at core
  the test charge radii are     0.6991  0.7215
  (the norm of the test charge is              1.0000)
       1 -58.2600       2 -58.2599       3 -58.2051       4 -58.0555       5 -58.2027
       6 -58.2600       7 -58.2752       8 -58.1316       9 -58.1324      10 -58.2750
      11 -58.2028      12 -58.1336      13 -60.6830      14 -58.1326      15 -58.2031
      16 -58.0579      17 -58.1316      18 -58.1321      19 -58.0577      20 -58.0654
      21 -58.2033      22 -58.2749      23 -58.2019      24 -58.0651      25 -58.0665
      26 -58.3816      27 -58.2924      28 -58.2207      29 -58.2203      30 -58.2918
      31 -58.2916      32 -58.3162      33 -58.8073      34 -58.3140      35 -58.2919
      36 -58.2211      37 -58.8096      38 -58.8103      39 -58.2211      40 -58.2230
      41 -58.2214      42 -58.3133      43 -58.2208      44 -58.1637      45 -58.1641
      46 -58.2927      47 -58.2908      48 -58.2208      49 -58.1662      50 -58.2241
      51 -81.5729
 
 
 
 E-fermi :  -3.0167     XC(G=0):  -2.2107     alpha+bet : -1.9409


 k-point     1 :       0.0000    0.0000    0.0000
  band No.  band energies     occupation 
      1     -31.7380      2.00000
      2     -22.2706      2.00000
      3     -21.5047      2.00000
      4     -21.5008      2.00000
      5     -21.3974      2.00000
      6     -21.3941      2.00000
      7     -21.3907      2.00000
      8     -20.8745      2.00000
      9     -19.8763      2.00000
     10     -19.8760      2.00000
     11     -19.5562      2.00000
     12     -19.5482      2.00000
     13     -19.5330      2.00000
     14     -19.1892      2.00000
     15     -18.9006      2.00000
     16     -18.8975      2.00000
     17     -18.6488      2.00000
     18     -18.6435      2.00000
     19     -18.6401      2.00000
     20     -17.8864      2.00000
     21     -17.0231      2.00000
     22     -17.0187      2.00000
     23     -16.4775      2.00000
     24     -16.4589      2.00000
     25     -16.4537      2.00000
     26     -16.0493      2.00000
     27     -15.9987      2.00000
     28     -15.9934      2.00000
     29     -15.5033      2.00000
     30     -15.4942      2.00000
     31     -15.4895      2.00000
     32     -15.0899      2.00000
     33     -14.6306      2.00000
     34     -14.6277      2.00000
     35     -14.1548      2.00000
     36     -14.1503      2.00000
     37     -14.1443      2.00000
     38     -13.9587      2.00000
     39     -12.9920      2.00000
     40     -12.9888      2.00000
     41     -12.0312      2.00000
     42     -11.7692      2.00000
     43     -11.7644      2.00000
     44     -11.7605      2.00000
     45     -11.6936      2.00000
     46     -11.6858      2.00000
     47     -11.6514      2.00000
     48     -11.6499      2.00000
     49     -11.6495      2.00000
     50     -11.6433      2.00000
     51     -10.8008      2.00000
     52     -10.7981      2.00000
     53     -10.4302      2.00000
     54     -10.3341      2.00000
     55     -10.2926      2.00000
     56     -10.2884      2.00000
     57     -10.2709      2.00000
     58     -10.0771      2.00000
     59      -9.6869      2.00000
     60      -9.6811      2.00000
     61      -9.3253      2.00000
     62      -9.3223      2.00000
     63      -9.3016      2.00000
     64      -9.2815      2.00000
     65      -9.2785      2.00000
     66      -9.0473      2.00000
     67      -9.0045      2.00000
     68      -9.0037      2.00000
     69      -8.9508      2.00000
     70      -8.9442      2.00000
     71      -8.9392      2.00000
     72      -8.9356      2.00000
     73      -8.9216      2.00000
     74      -8.9136      2.00000
     75      -8.8945      2.00000
     76      -8.4353      2.00000
     77      -7.8023      2.00000
     78      -7.7994      2.00000
     79      -7.3290      2.00000
     80      -7.3228      2.00000
     81      -7.3131      2.00000
     82      -7.3025      2.00000
     83      -7.2994      2.00000
     84      -7.2917      2.00000
     85      -7.1669      2.00000
     86      -7.1605      2.00000
     87      -7.1498      2.00000
     88      -6.7498      2.00000
     89      -6.5073      2.00000
     90      -6.5053      2.00000
     91      -6.2709      2.00000
     92      -6.2472      2.00000
     93      -6.2435      2.00000
     94      -5.9280      2.00000
     95      -5.9176      2.00000
     96      -5.1980      2.00000
     97      -4.7650      2.00000
     98      -4.7613      2.00000
     99      -4.2721      2.00000
    100      -4.2674      2.00000
    101      -4.2613      2.00000
    102      -3.2149      2.00000
    103      -3.2132      2.00000
    104      -2.9155      0.00421
    105      -1.4651      0.00000
    106      -1.4593      0.00000
    107      -1.4520      0.00000
    108      -0.9930      0.00000
    109      -0.9888      0.00000
    110      -0.5405      0.00000
    111       0.4181      0.00000
    112       0.4192      0.00000
    113       0.4241      0.00000
    114       0.5618      0.00000
    115       0.8410      0.00000
    116       0.8456      0.00000
    117       1.2913      0.00000
    118       1.3395      0.00000
    119       1.6809      0.00000
    120       1.8016      0.00000
    121       1.8022      0.00000
    122       1.8033      0.00000
    123       1.8253      0.00000
    124       1.8265      0.00000
    125       2.0310      0.00000
    126       2.1704      0.00000
    127       2.1793      0.00000
    128       2.1867      0.00000
    129       2.3474      0.00000
    130       2.3486      0.00000
    131       2.6299      0.00000
    132       2.6520      0.00000

 k-point     2 :       0.3333    0.0000    0.0000
  band No.  band energies     occupation 
      1     -31.7381      2.00000
      2     -22.1887      2.00000
      3     -21.8683      2.00000
      4     -21.6616      2.00000
      5     -21.4544      2.00000
      6     -21.0354      2.00000
      7     -20.8968      2.00000
      8     -20.7264      2.00000
      9     -20.4215      2.00000
     10     -20.1624      2.00000
     11     -19.7857      2.00000
     12     -19.6947      2.00000
     13     -19.3271      2.00000
     14     -19.2429      2.00000
     15     -19.0631      2.00000
     16     -18.5927      2.00000
     17     -18.4576      2.00000
     18     -18.1209      2.00000
     19     -18.0650      2.00000
     20     -17.5887      2.00000
     21     -17.4971      2.00000
     22     -17.3011      2.00000
     23     -17.2760      2.00000
     24     -16.8507      2.00000
     25     -16.6563      2.00000
     26     -16.1759      2.00000
     27     -15.9809      2.00000
     28     -15.8479      2.00000
     29     -15.2963      2.00000
     30     -15.1690      2.00000
     31     -15.1341      2.00000
     32     -14.8822      2.00000
     33     -14.7806      2.00000
     34     -14.4777      2.00000
     35     -14.4590      2.00000
     36     -13.7666      2.00000
     37     -13.7589      2.00000
     38     -13.1959      2.00000
     39     -13.0900      2.00000
     40     -12.9388      2.00000
     41     -12.9040      2.00000
     42     -12.5843      2.00000
     43     -12.5513      2.00000
     44     -12.3889      2.00000
     45     -12.0175      2.00000
     46     -11.6591      2.00000
     47     -11.4479      2.00000
     48     -11.2961      2.00000
     49     -11.1192      2.00000
     50     -10.9139      2.00000
     51     -10.8514      2.00000
     52     -10.5841      2.00000
     53     -10.5321      2.00000
     54     -10.2864      2.00000
     55     -10.2368      2.00000
     56     -10.1627      2.00000
     57     -10.0503      2.00000
     58      -9.8525      2.00000
     59      -9.8207      2.00000
     60      -9.6530      2.00000
     61      -9.6068      2.00000
     62      -9.5611      2.00000
     63      -9.5265      2.00000
     64      -9.3703      2.00000
     65      -9.3409      2.00000
     66      -9.2604      2.00000
     67      -9.1727      2.00000
     68      -9.1018      2.00000
     69      -9.0796      2.00000
     70      -8.8654      2.00000
     71      -8.7122      2.00000
     72      -8.6642      2.00000
     73      -8.5039      2.00000
     74      -8.4020      2.00000
     75      -8.2828      2.00000
     76      -8.1333      2.00000
     77      -8.0936      2.00000
     78      -8.0648      2.00000
     79      -7.9722      2.00000
     80      -7.8078      2.00000
     81      -7.6198      2.00000
     82      -7.3607      2.00000
     83      -7.3384      2.00000
     84      -7.2687      2.00000
     85      -7.1993      2.00000
     86      -6.9210      2.00000
     87      -6.8723      2.00000
     88      -6.6880      2.00000
     89      -6.5923      2.00000
     90      -6.3529      2.00000
     91      -6.1837      2.00000
     92      -6.0716      2.00000
     93      -5.9216      2.00000
     94      -5.7386      2.00000
     95      -5.6435      2.00000
     96      -5.3196      2.00000
     97      -5.1145      2.00000
     98      -4.9708      2.00000
     99      -4.9202      2.00000
    100      -4.2699      2.00000
    101      -4.1688      2.00000
    102      -3.3363      2.00000
    103      -3.1369      1.99933
    104      -2.8039      0.00000
    105      -1.5887      0.00000
    106      -1.4216      0.00000
    107      -0.8403      0.00000
    108      -0.8191      0.00000
    109      -0.7072      0.00000
    110      -0.6709      0.00000
    111      -0.1262      0.00000
    112      -0.0053      0.00000
    113       0.2936      0.00000
    114       0.7041      0.00000
    115       0.7243      0.00000
    116       1.1003      0.00000
    117       1.1771      0.00000
    118       1.3644      0.00000
    119       1.4624      0.00000
    120       1.5368      0.00000
    121       1.5703      0.00000
    122       1.6370      0.00000
    123       1.8304      0.00000
    124       1.9117      0.00000
    125       2.0396      0.00000
    126       2.2208      0.00000
    127       2.2712      0.00000
    128       2.3288      0.00000
    129       2.3388      0.00000
    130       2.3950      0.00000
    131       2.4576      0.00000
    132       2.7975      0.00000

 k-point     3 :       0.0000    0.3333    0.0000
  band No.  band energies     occupation 
      1     -31.7381      2.00000
      2     -22.1886      2.00000
      3     -21.8691      2.00000
      4     -21.6590      2.00000
      5     -21.4579      2.00000
      6     -21.0323      2.00000
      7     -20.8984      2.00000
      8     -20.7272      2.00000
      9     -20.4178      2.00000
     10     -20.1634      2.00000
     11     -19.7872      2.00000
     12     -19.6977      2.00000
     13     -19.3290      2.00000
     14     -19.2397      2.00000
     15     -19.0618      2.00000
     16     -18.5904      2.00000
     17     -18.4605      2.00000
     18     -18.1195      2.00000
     19     -18.0639      2.00000
     20     -17.5927      2.00000
     21     -17.4942      2.00000
     22     -17.3007      2.00000
     23     -17.2755      2.00000
     24     -16.8521      2.00000
     25     -16.6585      2.00000
     26     -16.1751      2.00000
     27     -15.9780      2.00000
     28     -15.8480      2.00000
     29     -15.2995      2.00000
     30     -15.1693      2.00000
     31     -15.1341      2.00000
     32     -14.8837      2.00000
     33     -14.7814      2.00000
     34     -14.4782      2.00000
     35     -14.4540      2.00000
     36     -13.7657      2.00000
     37     -13.7603      2.00000
     38     -13.1959      2.00000
     39     -13.0889      2.00000
     40     -12.9326      2.00000
     41     -12.9039      2.00000
     42     -12.5858      2.00000
     43     -12.5518      2.00000
     44     -12.3900      2.00000
     45     -12.0221      2.00000
     46     -11.6624      2.00000
     47     -11.4471      2.00000
     48     -11.2966      2.00000
     49     -11.1220      2.00000
     50     -10.9162      2.00000
     51     -10.8501      2.00000
     52     -10.5815      2.00000
     53     -10.5309      2.00000
     54     -10.2849      2.00000
     55     -10.2367      2.00000
     56     -10.1612      2.00000
     57     -10.0469      2.00000
     58      -9.8532      2.00000
     59      -9.8181      2.00000
     60      -9.6524      2.00000
     61      -9.6067      2.00000
     62      -9.5616      2.00000
     63      -9.5258      2.00000
     64      -9.3703      2.00000
     65      -9.3425      2.00000
     66      -9.2601      2.00000
     67      -9.1773      2.00000
     68      -9.0975      2.00000
     69      -9.0816      2.00000
     70      -8.8630      2.00000
     71      -8.7122      2.00000
     72      -8.6654      2.00000
     73      -8.5052      2.00000
     74      -8.4027      2.00000
     75      -8.2893      2.00000
     76      -8.1327      2.00000
     77      -8.0919      2.00000
     78      -8.0669      2.00000
     79      -7.9683      2.00000
     80      -7.8089      2.00000
     81      -7.6230      2.00000
     82      -7.3611      2.00000
     83      -7.3366      2.00000
     84      -7.2659      2.00000
     85      -7.1959      2.00000
     86      -6.9229      2.00000
     87      -6.8698      2.00000
     88      -6.6922      2.00000
     89      -6.5911      2.00000
     90      -6.3496      2.00000
     91      -6.1850      2.00000
     92      -6.0721      2.00000
     93      -5.9232      2.00000
     94      -5.7383      2.00000
     95      -5.6429      2.00000
     96      -5.3217      2.00000
     97      -5.1123      2.00000
     98      -4.9693      2.00000
     99      -4.9214      2.00000
    100      -4.2706      2.00000
    101      -4.1699      2.00000
    102      -3.3358      2.00000
    103      -3.1364      1.99929
    104      -2.8027      0.00000
    105      -1.5888      0.00000
    106      -1.4239      0.00000
    107      -0.8402      0.00000
    108      -0.8196      0.00000
    109      -0.7087      0.00000
    110      -0.6703      0.00000
    111      -0.1254      0.00000
    112      -0.0056      0.00000
    113       0.2963      0.00000
    114       0.7042      0.00000
    115       0.7266      0.00000
    116       1.0994      0.00000
    117       1.1754      0.00000
    118       1.3621      0.00000
    119       1.4629      0.00000
    120       1.5375      0.00000
    121       1.5722      0.00000
    122       1.6381      0.00000
    123       1.8313      0.00000
    124       1.9127      0.00000
    125       2.0405      0.00000
    126       2.2286      0.00000
    127       2.2744      0.00000
    128       2.3356      0.00000
    129       2.4264      0.00000
    130       2.7399      0.00000
    131       3.2544      0.00000
    132       3.6153      0.00000

 k-point     4 :       0.3333    0.3333    0.0000
  band No.  band energies     occupation 
      1     -31.7381      2.00000
      2     -22.1882      2.00000
      3     -21.8698      2.00000
      4     -21.6617      2.00000
      5     -21.4533      2.00000
      6     -21.0343      2.00000
      7     -20.8968      2.00000
      8     -20.7278      2.00000
      9     -20.4201      2.00000
     10     -20.1631      2.00000
     11     -19.7854      2.00000
     12     -19.6988      2.00000
     13     -19.3262      2.00000
     14     -19.2410      2.00000
     15     -19.0627      2.00000
     16     -18.5920      2.00000
     17     -18.4568      2.00000
     18     -18.1197      2.00000
     19     -18.0649      2.00000
     20     -17.5912      2.00000
     21     -17.4982      2.00000
     22     -17.3021      2.00000
     23     -17.2764      2.00000
     24     -16.8482      2.00000
     25     -16.6586      2.00000
     26     -16.1750      2.00000
     27     -15.9758      2.00000
     28     -15.8461      2.00000
     29     -15.3002      2.00000
     30     -15.1704      2.00000
     31     -15.1375      2.00000
     32     -14.8846      2.00000
     33     -14.7829      2.00000
     34     -14.4767      2.00000
     35     -14.4525      2.00000
     36     -13.7671      2.00000
     37     -13.7597      2.00000
     38     -13.1957      2.00000
     39     -13.0878      2.00000
     40     -12.9312      2.00000
     41     -12.9033      2.00000
     42     -12.5872      2.00000
     43     -12.5502      2.00000
     44     -12.3901      2.00000
     45     -12.0226      2.00000
     46     -11.6663      2.00000
     47     -11.4462      2.00000
     48     -11.2966      2.00000
     49     -11.1215      2.00000
     50     -10.9148      2.00000
     51     -10.8508      2.00000
     52     -10.5795      2.00000
     53     -10.5302      2.00000
     54     -10.2860      2.00000
     55     -10.2365      2.00000
     56     -10.1610      2.00000
     57     -10.0515      2.00000
     58      -9.8542      2.00000
     59      -9.8166      2.00000
     60      -9.6541      2.00000
     61      -9.6065      2.00000
     62      -9.5560      2.00000
     63      -9.5256      2.00000
     64      -9.3722      2.00000
     65      -9.3409      2.00000
     66      -9.2606      2.00000
     67      -9.1726      2.00000
     68      -9.1009      2.00000
     69      -9.0798      2.00000
     70      -8.8647      2.00000
     71      -8.7135      2.00000
     72      -8.6644      2.00000
     73      -8.5050      2.00000
     74      -8.4054      2.00000
     75      -8.2901      2.00000
     76      -8.1338      2.00000
     77      -8.0975      2.00000
     78      -8.0678      2.00000
     79      -7.9686      2.00000
     80      -7.8089      2.00000
     81      -7.6181      2.00000
     82      -7.3587      2.00000
     83      -7.3348      2.00000
     84      -7.2660      2.00000
     85      -7.1923      2.00000
     86      -6.9198      2.00000
     87      -6.8723      2.00000
     88      -6.6960      2.00000
     89      -6.5906      2.00000
     90      -6.3451      2.00000
     91      -6.1876      2.00000
     92      -6.0755      2.00000
     93      -5.9206      2.00000
     94      -5.7382      2.00000
     95      -5.6423      2.00000
     96      -5.3230      2.00000
     97      -5.1155      2.00000
     98      -4.9699      2.00000
     99      -4.9237      2.00000
    100      -4.2666      2.00000
    101      -4.1683      2.00000
    102      -3.3363      2.00000
    103      -3.1361      1.99927
    104      -2.8016      0.00000
    105      -1.5912      0.00000
    106      -1.4288      0.00000
    107      -0.8388      0.00000
    108      -0.8217      0.00000
    109      -0.7066      0.00000
    110      -0.6628      0.00000
    111      -0.1259      0.00000
    112      -0.0064      0.00000
    113       0.2933      0.00000
    114       0.7044      0.00000
    115       0.7298      0.00000
    116       1.0995      0.00000
    117       1.1755      0.00000
    118       1.3657      0.00000
    119       1.4642      0.00000
    120       1.5609      0.00000
    121       1.5778      0.00000
    122       1.7507      0.00000
    123       1.8318      0.00000
    124       2.1803      0.00000
    125       2.3352      0.00000
    126       2.3965      0.00000
    127       2.6147      0.00000
    128       2.7877      0.00000
    129       2.8467      0.00000
    130       3.2033      0.00000
    131       3.5967      0.00000
    132       4.1730      0.00000

 k-point     5 :      -0.3333    0.3333    0.0000
  band No.  band energies     occupation 
      1     -31.7382      2.00000
      2     -22.0793      2.00000
      3     -22.0080      2.00000
      4     -21.8014      2.00000
      5     -21.1742      2.00000
      6     -21.1494      2.00000
      7     -20.8655      2.00000
      8     -20.4141      2.00000
      9     -20.3388      2.00000
     10     -20.1704      2.00000
     11     -20.1532      2.00000
     12     -20.1406      2.00000
     13     -19.5651      2.00000
     14     -18.8246      2.00000
     15     -18.6773      2.00000
     16     -18.3714      2.00000
     17     -18.3511      2.00000
     18     -18.3361      2.00000
     19     -17.9287      2.00000
     20     -17.7984      2.00000
     21     -17.6031      2.00000
     22     -17.2590      2.00000
     23     -17.1539      2.00000
     24     -17.1199      2.00000
     25     -16.5425      2.00000
     26     -16.4376      2.00000
     27     -16.2860      2.00000
     28     -15.8099      2.00000
     29     -15.6282      2.00000
     30     -15.1745      2.00000
     31     -14.9677      2.00000
     32     -14.6513      2.00000
     33     -13.9585      2.00000
     34     -13.9410      2.00000
     35     -13.9276      2.00000
     36     -13.8716      2.00000
     37     -13.8643      2.00000
     38     -13.7903      2.00000
     39     -13.6748      2.00000
     40     -13.4945      2.00000
     41     -13.0352      2.00000
     42     -12.4727      2.00000
     43     -12.2527      2.00000
     44     -12.0742      2.00000
     45     -11.8238      2.00000
     46     -11.7725      2.00000
     47     -11.5659      2.00000
     48     -11.5473      2.00000
     49     -11.5254      2.00000
     50     -10.9242      2.00000
     51     -10.8141      2.00000
     52     -10.5274      2.00000
     53     -10.2073      2.00000
     54     -10.2027      2.00000
     55     -10.1949      2.00000
     56     -10.0939      2.00000
     57     -10.0530      2.00000
     58     -10.0224      2.00000
     59      -9.9031      2.00000
     60      -9.7518      2.00000
     61      -9.7442      2.00000
     62      -9.5655      2.00000
     63      -9.4409      2.00000
     64      -9.4083      2.00000
     65      -9.1947      2.00000
     66      -9.0491      2.00000
     67      -9.0329      2.00000
     68      -8.9030      2.00000
     69      -8.8833      2.00000
     70      -8.6846      2.00000
     71      -8.6414      2.00000
     72      -8.6361      2.00000
     73      -8.6235      2.00000
     74      -8.5801      2.00000
     75      -8.3714      2.00000
     76      -8.2500      2.00000
     77      -8.1690      2.00000
     78      -8.0357      2.00000
     79      -7.9841      2.00000
     80      -7.8783      2.00000
     81      -7.8606      2.00000
     82      -7.8527      2.00000
     83      -7.2289      2.00000
     84      -7.1854      2.00000
     85      -7.1258      2.00000
     86      -6.8823      2.00000
     87      -6.7223      2.00000
     88      -6.6095      2.00000
     89      -6.4632      2.00000
     90      -6.2666      2.00000
     91      -6.1036      2.00000
     92      -5.9174      2.00000
     93      -5.9126      2.00000
     94      -5.8972      2.00000
     95      -5.4504      2.00000
     96      -5.4247      2.00000
     97      -5.1212      2.00000
     98      -5.0140      2.00000
     99      -4.9817      2.00000
    100      -4.9557      2.00000
    101      -3.7317      2.00000
    102      -3.4587      2.00000
    103      -3.2796      2.00000
    104      -2.3870      0.00000
    105      -2.2223      0.00000
    106      -0.9278      0.00000
    107      -0.8831      0.00000
    108      -0.8705      0.00000
    109      -0.5366      0.00000
    110      -0.2658      0.00000
    111      -0.2102      0.00000
    112       0.2540      0.00000
    113       0.2578      0.00000
    114       0.2621      0.00000
    115       0.5990      0.00000
    116       0.7937      0.00000
    117       0.9485      0.00000
    118       0.9725      0.00000
    119       1.0613      0.00000
    120       1.7335      0.00000
    121       1.7460      0.00000
    122       1.7651      0.00000
    123       1.8261      0.00000
    124       2.1195      0.00000
    125       2.1220      0.00000
    126       2.1271      0.00000
    127       2.2461      0.00000
    128       2.2470      0.00000
    129       2.3615      0.00000
    130       2.9980      0.00000
    131       3.0127      0.00000
    132       3.0383      0.00000


--------------------------------------------------------------------------------------------------------


 soft charge-density along one line, spin component           1
         0         1         2         3         4         5         6         7         8         9
 total charge-density along one line
 
 pseudopotential strength for first ion, spin component:           1
 10.222  13.594   0.000  -0.000   0.000  -0.000   0.000  -0.000
 13.594  18.076   0.000  -0.000   0.000  -0.000   0.000  -0.000
  0.000   0.000  -4.352  -0.000  -0.000   8.513   0.000   0.000
 -0.000  -0.000  -0.000  -4.344  -0.000   0.000   8.502   0.000
  0.000   0.000  -0.000  -0.000  -4.352   0.000   0.000   8.513
 -0.000  -0.000   8.513   0.000   0.000 -18.786  -0.000  -0.000
  0.000   0.000   0.000   8.502   0.000  -0.000 -18.776  -0.000
 -0.000  -0.000   0.000   0.000   8.513  -0.000  -0.000 -18.787
 total augmentation occupancy for first ion, spin component:           1
  8.358  -3.741   0.001   0.000   0.003   0.000   0.000   0.001
 -3.741   1.730  -0.002  -0.000  -0.003  -0.000   0.000  -0.000
  0.001  -0.002   1.840  -0.000  -0.001   0.174   0.000   0.000
  0.000  -0.000  -0.000   1.223  -0.000   0.000   0.078   0.000
  0.003  -0.003  -0.001  -0.000   1.839   0.000   0.000   0.174
  0.000  -0.000   0.174   0.000   0.000   0.018   0.000   0.000
  0.000   0.000   0.000   0.078   0.000   0.000   0.005   0.000
  0.001  -0.000   0.000   0.000   0.174   0.000   0.000   0.018


------------------------ aborting loop because EDIFF is reached ----------------------------------------


    CHARGE:  cpu time    0.4072: real time    0.4076
    FORLOC:  cpu time    0.0273: real time    0.0273
    FORNL :  cpu time    1.9639: real time    1.9817
    STRESS:  cpu time    3.2647: real time    3.3199
    FORCOR:  cpu time    0.1205: real time    0.1205
    FORHAR:  cpu time    0.0482: real time    0.0482
    MIXING:  cpu time    0.0035: real time    0.0035
    OFIELD:  cpu time    0.0001: real time    0.0001

  FORCE on cell =-STRESS in cart. coord.  units (eV):
  Direction    XX          YY          ZZ          XY          YZ          ZX
  --------------------------------------------------------------------------------------
  Alpha Z    82.54348    82.54348    82.54348
  Ewald   41234.38774 41234.65535-47952.45463    -2.34837     0.05250    -0.03041
  Hartree 40516.54863 40516.79588-39998.55521    -0.42704     0.04644    -0.02986
  E(xc)    -777.15587  -777.15585  -804.23554    -0.00700    -0.00002    -0.00000
  Local  -83988.56364-83989.10301 85337.32435     2.34245    -0.09535     0.06428
  n-local  -203.92996  -203.93279  -194.69182    -0.01761     0.00239    -0.00019
  augment   -12.38211   -12.37956   -14.04720     0.00258    -0.00019    -0.00006
  Kinetic  3164.12068  3164.11279  3596.27989     0.31653    -0.00772    -0.00165
  Fock        0.00000     0.00000     0.00000     0.00000     0.00000     0.00000
  -------------------------------------------------------------------------------------
  Total      15.56895    15.53631    52.16332    -0.13846    -0.00196     0.00210
  in kB       9.51917     9.49921    31.89371    -0.08466    -0.00120     0.00129
  external pressure =       16.97 kB  Pullay stress =        0.00 kB


 VOLUME and BASIS-vectors are now :
 -----------------------------------------------------------------------------
  energy-cutoff  :      400.00
  volume of cell :     2620.42
      direct lattice vectors                 reciprocal lattice vectors
    12.300000191  0.000000000  0.000000000     0.081300812 -0.046939053  0.000000000
     6.150000804 10.652112223  0.000000000     0.000000000  0.093878095  0.000000000
     0.000000000  0.000000000 20.000000000     0.000000000  0.000000000  0.050000000

  length of vectors
    12.300000191 12.300000191 20.000000000     0.093878095  0.093878095  0.050000000


 FORCES acting on ions
    electron-ion (+dipol)            ewald-force                    non-local-force                 convergence-correction
 -----------------------------------------------------------------------------------------------
   -.152E+01 -.856E+00 0.279E+01   0.139E+01 0.778E+00 -.278E+01   0.862E-01 0.484E-01 -.435E-03   -.806E-03 0.110E-02 0.706E-03
   0.138E+01 -.888E+00 0.279E+01   -.126E+01 0.801E+00 -.278E+01   -.822E-01 0.507E-01 0.232E-03   0.145E-02 0.452E-03 0.741E-05
   0.286E+01 0.548E+01 0.381E+01   -.274E+01 -.545E+01 -.377E+01   -.677E-01 0.543E-01 -.700E-01   -.313E-03 0.140E-02 0.184E-03
   -.840E+00 0.138E+02 0.480E+01   0.102E+01 -.141E+02 -.494E+01   0.517E-01 0.324E-01 0.110E+00   -.139E-02 0.552E-02 0.452E-04
   -.379E+01 0.645E+01 0.381E+01   0.384E+01 -.651E+01 -.377E+01   0.118E+00 0.747E-01 -.714E-01   -.209E-02 0.341E-02 0.463E-03
   -.429E-01 0.172E+01 0.279E+01   0.416E-01 -.157E+01 -.278E+01   -.557E-03 -.987E-01 -.304E-03   0.513E-03 -.327E-03 0.394E-03
   0.115E+02 0.687E+01 0.489E+01   -.112E+02 -.668E+01 -.494E+01   0.107E+00 0.676E-01 0.527E-01   0.972E-03 0.794E-03 -.943E-04
   0.217E+02 0.363E+02 0.186E+02   -.222E+02 -.371E+02 -.190E+02   0.721E+00 0.654E+00 0.542E+00   0.416E-02 0.276E-02 0.112E-02
   -.210E+02 0.361E+02 0.186E+02   0.216E+02 -.370E+02 -.190E+02   -.637E+00 0.648E+00 0.545E+00   -.426E-02 0.280E-02 0.234E-03
   -.117E+02 0.672E+01 0.489E+01   0.114E+02 -.653E+01 -.494E+01   -.108E+00 0.624E-01 0.524E-01   -.243E-02 0.512E-03 -.392E-04
   0.740E+01 0.195E-01 0.381E+01   -.747E+01 -.266E-01 -.377E+01   0.950E-02 -.136E+00 -.714E-01   0.236E-02 -.185E-04 0.360E-03
   0.419E+02 0.510E-02 0.186E+02   -.429E+02 -.417E-01 -.190E+02   0.887E+00 0.216E+00 0.545E+00   0.388E-02 0.217E-02 -.336E-03
   0.266E-01 -.464E-01 0.291E+03   -.220E-01 0.413E-01 -.346E+03   0.268E-02 0.875E-02 0.713E+01   -.182E-02 -.187E-02 0.735E-02
   -.418E+02 -.663E-01 0.186E+02   0.429E+02 0.265E-01 -.190E+02   -.885E+00 0.225E+00 0.545E+00   -.437E-02 -.950E-03 -.543E-03
   -.743E+01 -.839E-02 0.381E+01   0.750E+01 -.643E-04 -.377E+01   -.957E-02 -.137E+00 -.712E-01   -.152E-02 0.541E-03 0.556E-03
   0.111E+02 -.641E+01 0.480E+01   -.113E+02 0.653E+01 -.494E+01   0.111E-01 -.671E-02 0.112E+00   0.339E-02 -.200E-02 -.427E-03
   0.209E+02 -.362E+02 0.186E+02   -.214E+02 0.371E+02 -.190E+02   0.246E+00 -.879E+00 0.545E+00   0.743E-03 -.432E-02 0.643E-04
   -.210E+02 -.362E+02 0.186E+02   0.214E+02 0.371E+02 -.190E+02   -.247E+00 -.879E+00 0.545E+00   -.210E-02 -.731E-03 0.144E-03
   -.111E+02 -.645E+01 0.480E+01   0.113E+02 0.656E+01 -.494E+01   -.106E-01 -.682E-02 0.112E+00   -.345E-02 -.121E-02 -.910E-04
   0.343E-02 -.146E+01 0.282E+01   -.439E-02 0.154E+01 -.278E+01   0.414E-03 -.860E-01 -.148E-01   0.822E-03 -.212E-02 0.602E-03
   0.369E+01 -.640E+01 0.381E+01   -.372E+01 0.647E+01 -.377E+01   0.122E+00 0.613E-01 -.714E-01   0.103E-02 -.304E-02 0.495E-03
   -.235E-01 -.135E+02 0.489E+01   0.232E-01 0.131E+02 -.494E+01   -.229E-02 -.125E+00 0.526E-01   0.690E-04 -.307E-02 0.122E-03
   -.373E+01 -.648E+01 0.381E+01   0.376E+01 0.655E+01 -.377E+01   -.127E+00 0.559E-01 -.715E-01   -.203E-02 -.140E-02 0.386E-04
   -.118E+01 0.738E+00 0.282E+01   0.125E+01 -.777E+00 -.278E+01   -.659E-01 0.432E-01 -.151E-01   0.152E-03 0.196E-02 0.475E-03
   0.126E+01 0.804E+00 0.282E+01   -.133E+01 -.843E+00 -.278E+01   0.706E-01 0.475E-01 -.147E-01   0.122E-02 0.131E-02 0.698E-03
   -.516E-01 -.715E-03 0.250E+01   0.515E-01 0.115E-03 -.250E+01   0.188E-02 -.260E-03 -.104E-01   0.683E-03 0.373E-03 0.310E-03
   0.502E+01 0.407E+01 0.341E+01   -.483E+01 -.429E+01 -.338E+01   -.448E-01 -.903E-03 -.231E-01   0.428E-04 0.171E-02 -.122E-03
   0.833E+01 0.172E+02 0.689E+01   -.842E+01 -.171E+02 -.651E+01   -.357E+00 0.162E+00 -.120E+00   0.591E-02 0.185E-02 0.385E-03
   -.637E+01 0.171E+02 0.688E+01   0.613E+01 -.171E+02 -.650E+01   0.932E-01 0.165E+00 -.121E+00   -.204E-02 0.395E-02 0.307E-03
   -.536E+01 0.407E+01 0.341E+01   0.519E+01 -.429E+01 -.338E+01   0.736E-01 0.336E-02 -.242E-01   -.173E-02 0.213E-02 0.462E-03
   0.614E+01 0.260E+01 0.341E+01   -.624E+01 -.234E+01 -.338E+01   -.333E-01 -.637E-01 -.239E-01   0.355E-02 0.448E-03 0.251E-03
   0.283E+02 0.165E+02 0.126E+02   -.286E+02 -.167E+02 -.131E+02   -.139E+00 -.115E+00 0.144E+00   0.206E-02 0.766E-03 0.219E-03
   -.233E-02 0.876E+02 0.586E+02   -.325E-01 -.920E+02 -.663E+02   0.218E-01 -.614E+00 0.330E+01   0.256E-02 0.409E-02 0.141E-02
   -.283E+02 0.163E+02 0.126E+02   0.286E+02 -.165E+02 -.131E+02   0.158E+00 -.916E-01 0.146E+00   -.390E-02 0.879E-03 -.368E-04
   -.621E+01 0.256E+01 0.341E+01   0.632E+01 -.230E+01 -.338E+01   0.333E-01 -.635E-01 -.239E-01   -.245E-02 0.112E-03 0.498E-03
   0.179E+02 -.328E+01 0.688E+01   -.177E+02 0.346E+01 -.650E+01   0.108E+00 -.139E+00 -.121E+00   0.266E-02 -.932E-03 -.239E-03
   0.760E+02 -.439E+02 0.586E+02   -.799E+02 0.461E+02 -.663E+02   -.557E+00 0.319E+00 0.330E+01   0.473E-02 -.114E-02 0.269E-02
   -.760E+02 -.439E+02 0.586E+02   0.799E+02 0.461E+02 -.663E+02   0.556E+00 0.321E+00 0.331E+01   -.379E-02 -.540E-02 0.417E-03
   -.179E+02 -.332E+01 0.688E+01   0.177E+02 0.350E+01 -.650E+01   -.106E+00 -.137E+00 -.121E+00   -.211E-02 -.117E-02 -.360E-04
   -.820E-02 -.596E+00 0.293E+01   0.829E-02 0.833E+00 -.290E+01   -.960E-05 -.154E+00 -.524E-01   0.647E-03 -.211E-02 0.350E-03
   0.118E+02 -.138E+02 0.688E+01   -.119E+02 0.135E+02 -.650E+01   0.171E+00 -.228E-01 -.122E+00   0.353E-02 -.275E-02 0.311E-03
   -.600E-02 -.327E+02 0.126E+02   0.828E-02 0.330E+02 -.131E+02   0.233E-03 0.184E+00 0.145E+00   -.135E-02 -.286E-02 -.127E-03
   -.118E+02 -.139E+02 0.688E+01   0.119E+02 0.136E+02 -.650E+01   -.172E+00 -.246E-01 -.122E+00   -.189E-02 -.160E-02 0.122E-03
   -.382E+01 -.222E+01 0.282E+01   0.376E+01 0.218E+01 -.286E+01   -.190E-01 -.112E-01 0.130E-01   -.224E-02 -.128E-02 0.590E-03
   0.384E+01 -.219E+01 0.282E+01   -.378E+01 0.216E+01 -.286E+01   0.193E-01 -.962E-02 0.128E-01   0.287E-02 -.192E-02 0.269E-03
   0.847E+00 -.663E+01 0.341E+01   -.112E+01 0.660E+01 -.338E+01   0.383E-01 0.607E-01 -.239E-01   0.912E-03 -.348E-02 0.469E-03
   -.914E+00 -.667E+01 0.341E+01   0.119E+01 0.664E+01 -.338E+01   -.392E-01 0.612E-01 -.238E-01   -.417E-03 -.204E-02 0.768E-04
   -.502E+00 0.140E+00 0.294E+01   0.701E+00 -.221E+00 -.290E+01   -.134E+00 0.721E-01 -.521E-01   -.165E-02 0.979E-03 0.134E-03
   0.260E-01 0.460E+01 0.282E+01   -.324E-01 -.457E+01 -.286E+01   -.942E-03 0.271E-01 0.136E-01   -.783E-03 0.401E-02 0.369E-03
   0.486E+00 0.342E+00 0.293E+01   -.687E+00 -.460E+00 -.290E+01   0.133E+00 0.759E-01 -.521E-01   0.110E-02 0.272E-03 0.541E-03
   0.365E-01 -.400E-01 -.722E+03   -.301E-01 0.525E-01 0.846E+03   0.240E-02 -.127E-01 -.638E+02   -.640E-02 -.172E-02 -.179E-01
 -----------------------------------------------------------------------------------------------
   0.752E-02 0.158E-01 0.440E+02   0.640E-13 -.136E-12 -.682E-12   -.811E-03 -.126E-01 -.440E+02   -.533E-02 -.315E-02 0.428E-02
 
 
 POSITION                                       TOTAL-FORCE (eV/Angst)
 -----------------------------------------------------------------------------------
      0.00000      0.00000      8.35995        -0.047400     -0.028745      0.009204
      2.46000      0.00000      8.35995         0.044335     -0.035490      0.009757
      4.92000      0.00000      8.35995         0.058118      0.080291     -0.026204
      7.38000      0.00000      8.35995         0.227971     -0.280438     -0.027442
      9.84000      0.00000      8.35995         0.157514      0.021427     -0.025847
      1.23000      2.13042      8.35995        -0.001378      0.055732      0.009361
      3.69000      2.13042      8.35995         0.428692      0.260094     -0.000175
      6.15000      2.13042      8.35995         0.198571     -0.206119      0.167857
      8.61000      2.13042      8.35995        -0.091208     -0.219257      0.165197
     11.07000      2.13042      8.35995        -0.429633      0.246675      0.000118
      2.46000      4.26084      8.35995        -0.067001     -0.143205     -0.025999
      4.92000      4.26084      8.35995        -0.124082      0.181439      0.165087
      7.38000      4.26084      8.35995         0.005440      0.001752    -48.163764
      9.84000      4.26084      8.35995         0.127958      0.184021      0.165108
     12.30000      4.26084      8.35995         0.066771     -0.145059     -0.026022
      3.69000      6.39127      8.35995        -0.179504      0.103175     -0.026930
      6.15000      6.39127      8.35995        -0.226441      0.019801      0.165043
      8.61000      6.39127      8.35995         0.224973      0.020767      0.165440
     11.07000      6.39127      8.35995         0.180963      0.102148     -0.027023
     13.53000      6.39127      8.35995         0.000251     -0.012069      0.017836
      4.92000      8.52169      8.35995         0.087902      0.131814     -0.026125
      7.38000      8.52169      8.35995        -0.002455     -0.496840      0.000017
      9.84000      8.52169      8.35995        -0.098297      0.126947     -0.026328
     12.30000      8.52169      8.35995         0.007376      0.005906      0.018031
     14.76000      8.52169      8.35995         0.003783      0.009888      0.017851
      1.23000      0.71014      8.36012         0.002436     -0.000490     -0.006014
      3.69000      0.71014      8.36012         0.144580     -0.220297      0.009861
      6.16000      0.71014      8.36012        -0.439229      0.258820      0.256862
      8.61000      0.71014      8.36012        -0.146081      0.254868      0.257345
     11.07000      0.71014      8.36012        -0.096057     -0.216460      0.010152
      2.46000      2.84056      8.36012        -0.136866      0.191184      0.010165
      4.92000      2.84056      8.36012        -0.450260     -0.284329     -0.355119
      7.38000      2.84056      8.36012        -0.010452     -5.041242     -4.348895
      9.84000      2.84056      8.36012         0.443667     -0.255329     -0.355192
     12.30000      2.84056      8.36012         0.140721      0.192230      0.010051
      3.69000      4.97099      8.36012         0.311956      0.042216      0.257014
      6.15000      4.97099      8.36012        -4.396229      2.538014     -4.349079
      8.61000      4.97099      8.36012         4.395490      2.538421     -4.346951
     11.07000      4.97099      8.36012        -0.312669      0.044708      0.256909
     13.53000      4.97099      8.36012         0.000695      0.081795     -0.022035
      4.92000      7.10141      8.36012         0.120001     -0.294277      0.256998
      7.38000      7.10141      8.36012         0.001133      0.511709     -0.355147
      9.84000      7.10141      8.36012        -0.121587     -0.291785      0.256877
     12.30000      7.10141      8.36012        -0.081153     -0.047073     -0.026512
     14.76000      7.10141      8.36012         0.080712     -0.048544     -0.026313
      6.15000      9.23183      8.36012        -0.234564      0.025873      0.010113
      8.61000      9.23183      8.36012         0.240228      0.026724      0.010099
     11.07000      9.23183      8.36012         0.062552     -0.007784     -0.021618
     13.53000      9.23183      8.36012        -0.008173      0.060584     -0.027218
     15.99000      9.23183      8.36012        -0.066419     -0.042217     -0.022133
      7.38000      4.26084      9.36012         0.002350     -0.001977     59.985734
 -----------------------------------------------------------------------------------
    total drift:                                0.001375      0.000131     -0.000625


--------------------------------------------------------------------------------------------------------



  FREE ENERGIE OF THE ION-ELECTRON SYSTEM (eV)
  ---------------------------------------------------
  free  energy   TOTEN  =      -454.33932491 eV

  energy  without entropy=     -454.33921248  energy(sigma->0) =     -454.33926869
 


--------------------------------------------------------------------------------------------------------


    POTLOK:  cpu time    0.1782: real time    0.1782


--------------------------------------------------------------------------------------------------------


 stress matrix after NEB project (eV)
     15.56895     -0.13846      0.00210
     -0.13846     15.53631     -0.00196
      0.00210     -0.00196     52.16332
  FORCES: max atom, RMS    59.985734   10.897065
  FORCE total and by dimension   77.820607   59.985734
  Stress total and by dimension   56.611129   52.163325
     LOOP+:  cpu time   42.3556: real time   42.6131
    4ORBIT:  cpu time    0.0000: real time    0.0000

 total amount of memory used by VASP MPI-rank0    90113. kBytes
=======================================================================

   base      :      30000. kBytes
   nonl-proj :       8674. kBytes
   fftplans  :      26248. kBytes
   grid      :      14579. kBytes
   one-center:         21. kBytes
   wavefun   :      10591. kBytes
 
  
  
 General timing and accounting informations for this job:
 ========================================================
  
                  Total CPU time used (sec):       50.035
                            User time (sec):       46.735
                          System time (sec):        3.301
                         Elapsed time (sec):       50.341
  
                   Maximum memory used (kb):      365408.
                   Average memory used (kb):           0.
  
                          Minor page faults:       100398
                          Major page faults:            0
                 Voluntary context switches:         1467
