  51  51   0   0
  0.5138078E+02  0.1230000E-08  0.1230000E-08  0.2000000E-08  0.5000000E-15
  1.000000000000000E-004
  CAR 
                                         
      5.96816624    -33.53502366  301     -3.01699821      1.00000000
    -33.535  0.0000E+00  0.0000E+00
    -33.403  0.0000E+00  0.0000E+00
    -33.272  0.0000E+00  0.0000E+00
    -33.140  0.0000E+00  0.0000E+00
    -33.008  0.0000E+00  0.0000E+00
    -32.877  0.0000E+00  0.0000E+00
    -32.745  0.0000E+00  0.0000E+00
    -32.613  0.0000E+00  0.0000E+00
    -32.482  0.0000E+00  0.0000E+00
    -32.350  0.0000E+00  0.0000E+00
    -32.218  0.0000E+00  0.0000E+00
    -32.087  0.0000E+00  0.0000E+00
    -31.955  0.8271E-08  0.1089E-08
    -31.823  0.1346E+00  0.1772E-01
    -31.692  0.1372E+02  0.1824E+01
    -31.560  0.1337E+01  0.2000E+01
    -31.428  0.2906E-05  0.2000E+01
    -31.297  0.0000E+00  0.2000E+01
    -31.165  0.0000E+00  0.2000E+01
    -31.033  0.0000E+00  0.2000E+01
    -30.901  0.0000E+00  0.2000E+01
    -30.770  0.0000E+00  0.2000E+01
    -30.638  0.0000E+00  0.2000E+01
    -30.506  0.0000E+00  0.2000E+01
    -30.375  0.0000E+00  0.2000E+01
    -30.243  0.0000E+00  0.2000E+01
    -30.111  0.0000E+00  0.2000E+01
    -29.980  0.0000E+00  0.2000E+01
    -29.848  0.0000E+00  0.2000E+01
    -29.716  0.0000E+00  0.2000E+01
    -29.585  0.0000E+00  0.2000E+01
    -29.453  0.0000E+00  0.2000E+01
    -29.321  0.0000E+00  0.2000E+01
    -29.190  0.0000E+00  0.2000E+01
    -29.058  0.0000E+00  0.2000E+01
    -28.926  0.0000E+00  0.2000E+01
    -28.795  0.0000E+00  0.2000E+01
    -28.663  0.0000E+00  0.2000E+01
    -28.531  0.0000E+00  0.2000E+01
    -28.400  0.0000E+00  0.2000E+01
    -28.268  0.0000E+00  0.2000E+01
    -28.136  0.0000E+00  0.2000E+01
    -28.005  0.0000E+00  0.2000E+01
    -27.873  0.0000E+00  0.2000E+01
    -27.741  0.0000E+00  0.2000E+01
    -27.610  0.0000E+00  0.2000E+01
    -27.478  0.0000E+00  0.2000E+01
    -27.346  0.0000E+00  0.2000E+01
    -27.215  0.0000E+00  0.2000E+01
    -27.083  0.0000E+00  0.2000E+01
    -26.951  0.0000E+00  0.2000E+01
    -26.819  0.0000E+00  0.2000E+01
    -26.688  0.0000E+00  0.2000E+01
    -26.556  0.0000E+00  0.2000E+01
    -26.424  0.0000E+00  0.2000E+01
    -26.293  0.0000E+00  0.2000E+01
    -26.161  0.0000E+00  0.2000E+01
    -26.029  0.0000E+00  0.2000E+01
    -25.898  0.0000E+00  0.2000E+01
    -25.766  0.0000E+00  0.2000E+01
    -25.634  0.0000E+00  0.2000E+01
    -25.503  0.0000E+00  0.2000E+01
    -25.371  0.0000E+00  0.2000E+01
    -25.239  0.0000E+00  0.2000E+01
    -25.108  0.0000E+00  0.2000E+01
    -24.976  0.0000E+00  0.2000E+01
    -24.844  0.0000E+00  0.2000E+01
    -24.713  0.0000E+00  0.2000E+01
    -24.581  0.0000E+00  0.2000E+01
    -24.449  0.0000E+00  0.2000E+01
    -24.318  0.0000E+00  0.2000E+01
    -24.186  0.0000E+00  0.2000E+01
    -24.054  0.0000E+00  0.2000E+01
    -23.923  0.0000E+00  0.2000E+01
    -23.791  0.0000E+00  0.2000E+01
    -23.659  0.0000E+00  0.2000E+01
    -23.528  0.0000E+00  0.2000E+01
    -23.396  0.0000E+00  0.2000E+01
    -23.264  0.0000E+00  0.2000E+01
    -23.133  0.0000E+00  0.2000E+01
    -23.001  0.0000E+00  0.2000E+01
    -22.869  0.0000E+00  0.2000E+01
    -22.737  0.0000E+00  0.2000E+01
    -22.606  0.0000E+00  0.2000E+01
    -22.474  0.7580E-08  0.2000E+01
    -22.342  0.3629E-01  0.2005E+01
    -22.211  0.4282E+01  0.2569E+01
    -22.079  0.9290E+01  0.3792E+01
    -21.947  0.4939E+01  0.4442E+01
    -21.816  0.1063E+02  0.5843E+01
    -21.684  0.5488E+01  0.6565E+01
    -21.552  0.7808E+01  0.7593E+01
    -21.421  0.1259E+02  0.9252E+01
    -21.289  0.5678E+01  0.9999E+01
    -21.157  0.3651E+01  0.1048E+02
    -21.026  0.9164E+01  0.1169E+02
    -20.894  0.1071E+02  0.1310E+02
    -20.762  0.1017E+02  0.1444E+02
    -20.631  0.8476E+01  0.1555E+02
    -20.499  0.1849E+00  0.1558E+02
    -20.367  0.1303E+02  0.1729E+02
    -20.236  0.4043E+01  0.1782E+02
    -20.104  0.1853E+02  0.2026E+02
    -19.972  0.1392E+01  0.2045E+02
    -19.841  0.3483E+01  0.2090E+02
    -19.709  0.1379E+02  0.2272E+02
    -19.577  0.8575E+01  0.2385E+02
    -19.446  0.6193E+01  0.2467E+02
    -19.314  0.6672E+01  0.2554E+02
    -19.182  0.1417E+02  0.2741E+02
    -19.051  0.7400E+01  0.2838E+02
    -18.919  0.4881E+01  0.2903E+02
    -18.787  0.5248E+01  0.2972E+02
    -18.655  0.5043E+01  0.3038E+02
    -18.524  0.1403E+02  0.3223E+02
    -18.392  0.1129E+02  0.3371E+02
    -18.260  0.8838E+01  0.3488E+02
    -18.129  0.4583E+01  0.3548E+02
    -17.997  0.1552E+02  0.3753E+02
    -17.865  0.4782E+01  0.3816E+02
    -17.734  0.3787E+01  0.3865E+02
    -17.602  0.5553E+01  0.3939E+02
    -17.470  0.1593E+02  0.4148E+02
    -17.339  0.4109E+01  0.4202E+02
    -17.207  0.2149E+02  0.4485E+02
    -17.075  0.6838E+01  0.4575E+02
    -16.944  0.3550E+01  0.4622E+02
    -16.812  0.8771E+01  0.4738E+02
    -16.680  0.4044E+01  0.4791E+02
    -16.549  0.8954E+01  0.4909E+02
    -16.417  0.8860E+01  0.5025E+02
    -16.285  0.3090E+01  0.5066E+02
    -16.154  0.9178E+01  0.5187E+02
    -16.022  0.5847E+01  0.5264E+02
    -15.890  0.1312E+02  0.5437E+02
    -15.759  0.1207E+02  0.5596E+02
    -15.627  0.2085E+01  0.5623E+02
    -15.495  0.4179E+01  0.5678E+02
    -15.364  0.2828E+01  0.5715E+02
    -15.232  0.1010E+02  0.5848E+02
    -15.100  0.2194E+02  0.6137E+02
    -14.969  0.4876E+01  0.6202E+02
    -14.837  0.1140E+02  0.6352E+02
    -14.705  0.1055E+02  0.6491E+02
    -14.573  0.6425E+01  0.6575E+02
    -14.442  0.1538E+02  0.6778E+02
    -14.310  0.5071E+01  0.6844E+02
    -14.178  0.9619E+00  0.6857E+02
    -14.047  0.4134E+01  0.6912E+02
    -13.915  0.9767E+01  0.7040E+02
    -13.783  0.1650E+02  0.7257E+02
    -13.652  0.1837E+02  0.7499E+02
    -13.520  0.1700E+01  0.7522E+02
    -13.388  0.2572E+01  0.7555E+02
    -13.257  0.4342E+00  0.7561E+02
    -13.125  0.1106E+02  0.7707E+02
    -12.993  0.1386E+02  0.7889E+02
    -12.862  0.2054E+02  0.8160E+02
    -12.730  0.1367E+01  0.8178E+02
    -12.598  0.4429E+01  0.8236E+02
    -12.467  0.1785E+02  0.8471E+02
    -12.335  0.1089E+02  0.8615E+02
    -12.203  0.3693E+01  0.8663E+02
    -12.072  0.2945E+01  0.8702E+02
    -11.940  0.1239E+02  0.8865E+02
    -11.808  0.3411E+01  0.8910E+02
    -11.677  0.1573E+02  0.9117E+02
    -11.545  0.1799E+02  0.9354E+02
    -11.413  0.1358E+02  0.9533E+02
    -11.282  0.8374E+01  0.9643E+02
    -11.150  0.5601E+01  0.9717E+02
    -11.018  0.8004E+01  0.9822E+02
    -10.887  0.1251E+02  0.9987E+02
    -10.755  0.1737E+02  0.1022E+03
    -10.623  0.1899E+01  0.1024E+03
    -10.491  0.2051E+02  0.1051E+03
    -10.360  0.4003E+01  0.1056E+03
    -10.228  0.2398E+02  0.1088E+03
    -10.096  0.2574E+02  0.1122E+03
     -9.965  0.1871E+02  0.1146E+03
     -9.833  0.1433E+02  0.1165E+03
     -9.701  0.1767E+02  0.1189E+03
     -9.570  0.2718E+02  0.1224E+03
     -9.438  0.2128E+02  0.1252E+03
     -9.306  0.2702E+02  0.1288E+03
     -9.175  0.2365E+02  0.1319E+03
     -9.043  0.2854E+02  0.1357E+03
     -8.911  0.2015E+02  0.1383E+03
     -8.780  0.1800E+02  0.1407E+03
     -8.648  0.2281E+02  0.1437E+03
     -8.516  0.1769E+02  0.1460E+03
     -8.385  0.1641E+02  0.1482E+03
     -8.253  0.1544E+02  0.1502E+03
     -8.121  0.1565E+02  0.1523E+03
     -7.990  0.2886E+02  0.1561E+03
     -7.858  0.1614E+02  0.1582E+03
     -7.726  0.1682E+02  0.1604E+03
     -7.595  0.7910E+01  0.1615E+03
     -7.463  0.2392E+01  0.1618E+03
     -7.331  0.1693E+02  0.1640E+03
     -7.200  0.3240E+02  0.1683E+03
     -7.068  0.1628E+02  0.1704E+03
     -6.936  0.4133E+01  0.1710E+03
     -6.805  0.1954E+02  0.1735E+03
     -6.673  0.1226E+02  0.1752E+03
     -6.541  0.1630E+02  0.1773E+03
     -6.409  0.7186E+01  0.1782E+03
     -6.278  0.1233E+02  0.1799E+03
     -6.146  0.1538E+02  0.1819E+03
     -6.014  0.1388E+02  0.1837E+03
     -5.883  0.1979E+02  0.1863E+03
     -5.751  0.8001E+01  0.1874E+03
     -5.619  0.1372E+02  0.1892E+03
     -5.488  0.3471E+01  0.1896E+03
     -5.356  0.7728E+01  0.1907E+03
     -5.224  0.8835E+01  0.1918E+03
     -5.093  0.1151E+02  0.1933E+03
     -4.961  0.1790E+02  0.1957E+03
     -4.829  0.1588E+02  0.1978E+03
     -4.698  0.3208E+01  0.1982E+03
     -4.566  0.1057E+00  0.1982E+03
     -4.434  0.2285E-04  0.1982E+03
     -4.303  0.2602E+01  0.1986E+03
     -4.171  0.1734E+02  0.2008E+03
     -4.039  0.5367E+01  0.2016E+03
     -3.908  0.1282E-02  0.2016E+03
     -3.776  0.3700E+00  0.2016E+03
     -3.644  0.2984E+01  0.2020E+03
     -3.513  0.2300E+00  0.2020E+03
     -3.381  0.4177E+01  0.2026E+03
     -3.249  0.1232E+02  0.2042E+03
     -3.118  0.1067E+02  0.2056E+03
     -2.986  0.3034E+01  0.2060E+03
     -2.854  0.2353E+01  0.2063E+03
     -2.723  0.9310E+01  0.2075E+03
     -2.591  0.1101E+00  0.2076E+03
     -2.459  0.6964E-01  0.2076E+03
     -2.328  0.3156E+01  0.2080E+03
     -2.196  0.2805E+01  0.2083E+03
     -2.064  0.7206E+00  0.2084E+03
     -1.932  0.1050E-04  0.2084E+03
     -1.801  0.1523E-07  0.2084E+03
     -1.669  0.1384E+00  0.2085E+03
     -1.537  0.9405E+01  0.2097E+03
     -1.406  0.1231E+02  0.2113E+03
     -1.274  0.3466E+01  0.2118E+03
     -1.142  0.1522E-03  0.2118E+03
     -1.011  0.1009E+01  0.2119E+03
     -0.879  0.1034E+02  0.2133E+03
     -0.747  0.2349E+02  0.2164E+03
     -0.616  0.1848E+02  0.2188E+03
     -0.484  0.5458E+01  0.2195E+03
     -0.352  0.3124E+00  0.2196E+03
     -0.221  0.4345E+01  0.2201E+03
     -0.089  0.1126E+02  0.2216E+03
      0.043  0.1052E+02  0.2230E+03
      0.174  0.9601E+00  0.2231E+03
      0.306  0.1570E+02  0.2252E+03
      0.438  0.7939E+01  0.2262E+03
      0.569  0.3243E+01  0.2267E+03
      0.701  0.1039E+02  0.2280E+03
      0.833  0.1745E+02  0.2303E+03
      0.964  0.6174E+01  0.2311E+03
      1.096  0.1076E+02  0.2326E+03
      1.228  0.1531E+02  0.2346E+03
      1.359  0.7895E+01  0.2356E+03
      1.491  0.1502E+02  0.2376E+03
      1.623  0.2296E+02  0.2406E+03
      1.754  0.1550E+02  0.2427E+03
      1.886  0.2771E+02  0.2463E+03
      2.018  0.8602E+01  0.2474E+03
      2.150  0.1577E+02  0.2495E+03
      2.281  0.2631E+02  0.2530E+03
      2.413  0.3329E+02  0.2574E+03
      2.545  0.9950E+01  0.2587E+03
      2.676  0.5105E+01  0.2593E+03
      2.808  0.8728E+01  0.2605E+03
      2.940  0.6563E+01  0.2614E+03
      3.071  0.9140E+01  0.2626E+03
      3.203  0.2397E+01  0.2629E+03
      3.335  0.1744E+01  0.2631E+03
      3.466  0.8647E-03  0.2631E+03
      3.598  0.1811E+01  0.2633E+03
      3.730  0.1563E+01  0.2636E+03
      3.861  0.2281E-03  0.2636E+03
      3.993  0.6413E-06  0.2636E+03
      4.125  0.2964E+00  0.2636E+03
      4.256  0.3049E+01  0.2640E+03
      4.388  0.3001E-01  0.2640E+03
      4.520  0.1853E-08  0.2640E+03
      4.651  0.0000E+00  0.2640E+03
      4.783  0.0000E+00  0.2640E+03
      4.915  0.0000E+00  0.2640E+03
      5.046  0.0000E+00  0.2640E+03
      5.178  0.0000E+00  0.2640E+03
      5.310  0.0000E+00  0.2640E+03
      5.441  0.0000E+00  0.2640E+03
      5.573  0.0000E+00  0.2640E+03
      5.705  0.0000E+00  0.2640E+03
      5.836  0.0000E+00  0.2640E+03
      5.968  0.0000E+00  0.2640E+03
