 vasp.5.4.4.18Apr17-6-g9f103f2a35 (build Aug 13 2022 23:40:43) complex          
  
 executed on             LinuxIFC date 2024.11.10  04:27:45
 running on   48 total cores
 distrk:  each k-point on   48 cores,    1 groups
 distr:  one band on NCORES_PER_BAND=   8 cores,    6 groups


--------------------------------------------------------------------------------------------------------


 INCAR:
 POTCAR:    PAW_PBE C 08Apr2002                   
 POTCAR:    PAW_PBE O 08Apr2002                   
 POTCAR:    PAW_PBE C 08Apr2002                   
   VRHFIN =C: s2p2                                                              
   LEXCH  = PE                                                                  
   EATOM  =   147.1560 eV,   10.8157 Ry                                         
                                                                                
   TITEL  = PAW_PBE C 08Apr2002                                                 
   LULTRA =        F    use ultrasoft PP ?                                      
   IUNSCR =        1    unscreen: 0-lin 1-nonlin 2-no                           
   RPACOR =    1.200    partial core radius                                     
   POMASS =   12.011; ZVAL   =    4.000    mass and valenz                      
   RCORE  =    1.500    outmost cutoff radius                                   
   RWIGS  =    1.630; RWIGS  =    0.863    wigner-seitz radius (au A)           
   ENMAX  =  400.000; ENMIN  =  300.000 eV                                      
   ICORE  =        2    local potential                                         
   LCOR   =        T    correct aug charges                                     
   LPAW   =        T    paw PP                                                  
   EAUG   =  644.873                                                            
   DEXC   =    0.000                                                            
   RMAX   =    1.529    core radius for proj-oper                               
   RAUG   =    1.300    factor for augmentation sphere                          
   RDEP   =    1.501    radius for radial grids                                 
   RDEPT  =    1.300    core radius for aug-charge                              
                                                                                
   Atomic configuration                                                         
    4 entries                                                                   
     n  l   j            E        occ.                                          
     1  0  0.50      -273.3789   2.0000                                         
     2  0  0.50       -13.7508   2.0000                                         
     2  1  0.50        -5.2854   2.0000                                         
     3  2  1.50        -5.4423   0.0000                                         
   Description                                                                  
     l       E           TYP  RCUT    TYP  RCUT                                 
     0    -13.7508458     23  1.200                                             
     0     -8.2022199     23  1.200                                             
     1     -5.2854383     23  1.500                                             
     1     34.0145650     23  1.500                                             
     2     -5.4423304      7  1.500                                             
  local pseudopotential read in
  partial core-charges read in
  partial kinetic energy density read in
  atomic valenz-charges read in
  non local Contribution for L=           0  read in
    real space projection operators read in
  non local Contribution for L=           0  read in
    real space projection operators read in
  non local Contribution for L=           1  read in
    real space projection operators read in
  non local Contribution for L=           1  read in
    real space projection operators read in
    PAW grid and wavefunctions read in
 
   number of l-projection  operators is LMAX  =           4
   number of lm-projection operators is LMMAX =           8
 
 POTCAR:    PAW_PBE O 08Apr2002                   
   VRHFIN =O: s2p4                                                              
   LEXCH  = PE                                                                  
   EATOM  =   432.3788 eV,   31.7789 Ry                                         
                                                                                
   TITEL  = PAW_PBE O 08Apr2002                                                 
   LULTRA =        F    use ultrasoft PP ?                                      
   IUNSCR =        1    unscreen: 0-lin 1-nonlin 2-no                           
   RPACOR =    1.200    partial core radius                                     
   POMASS =   16.000; ZVAL   =    6.000    mass and valenz                      
   RCORE  =    1.520    outmost cutoff radius                                   
   RWIGS  =    1.550; RWIGS  =    0.820    wigner-seitz radius (au A)           
   ENMAX  =  400.000; ENMIN  =  300.000 eV                                      
   ICORE  =        2    local potential                                         
   LCOR   =        T    correct aug charges                                     
   LPAW   =        T    paw PP                                                  
   EAUG   =  605.392                                                            
   DEXC   =    0.000                                                            
   RMAX   =    1.553    core radius for proj-oper                               
   RAUG   =    1.300    factor for augmentation sphere                          
   RDEP   =    1.550    radius for radial grids                                 
   RDEPT  =    1.329    core radius for aug-charge                              
                                                                                
   Atomic configuration                                                         
    4 entries                                                                   
     n  l   j            E        occ.                                          
     1  0  0.50      -514.6923   2.0000                                         
     2  0  0.50       -23.9615   2.0000                                         
     2  1  0.50        -9.0305   4.0000                                         
     3  2  1.50        -9.5241   0.0000                                         
   Description                                                                  
     l       E           TYP  RCUT    TYP  RCUT                                 
     0    -23.9615318     23  1.200                                             
     0     -9.5240782     23  1.200                                             
     1     -9.0304911     23  1.520                                             
     1      8.1634956     23  1.520                                             
     2     -9.5240782      7  1.500                                             
  local pseudopotential read in
  partial core-charges read in
  partial kinetic energy density read in
  kinetic energy density of atom read in
  atomic valenz-charges read in
  non local Contribution for L=           0  read in
    real space projection operators read in
  non local Contribution for L=           0  read in
    real space projection operators read in
  non local Contribution for L=           1  read in
    real space projection operators read in
  non local Contribution for L=           1  read in
    real space projection operators read in
    PAW grid and wavefunctions read in
 
   number of l-projection  operators is LMAX  =           4
   number of lm-projection operators is LMMAX =           8
 

 ----------------------------------------------------------------------------- 
|                                                                             |
|  ADVICE TO THIS USER RUNNING 'VASP/VAMP'   (HEAR YOUR MASTER'S VOICE ...):  |
|                                                                             |
|      You have a (more or less) 'large supercell' and for larger cells       |
|      it might be more efficient to use real space projection opertators     |
|      So try LREAL= Auto  in the INCAR   file.                               |
|      Mind:          For very  accurate calculation you might also keep the  |
|      reciprocal projection scheme          (i.e. LREAL=.FALSE.)             |
|                                                                             |
 ----------------------------------------------------------------------------- 

  PAW_PBE C 08Apr2002                   :
 energy of atom  1       EATOM= -147.1560
 kinetic energy error for atom=    0.0288 (will be added to EATOM!!)
  PAW_PBE O 08Apr2002                   :
 energy of atom  2       EATOM= -432.3788
 kinetic energy error for atom=    0.1156 (will be added to EATOM!!)
 
 
 POSCAR: generated by phonopy                    
  positions in direct lattice
  No initial velocities read in
 exchange correlation table for  LEXCH =        8
   RHO(1)=    0.500       N(1)  =     2000
   RHO(2)=  100.500       N(2)  =     4000

 VTST: version 3.2, (02/03/18)

 CHAIN: initializing optimizer
 
 OPT: Using VASP Dynamics algorithm
 CHAIN: Read ICHAIN            0
 
 POSCAR: generated by phonopy                    
  positions in direct lattice
  No initial velocities read in
 


--------------------------------------------------------------------------------------------------------


 ion  position               nearest neighbor table
   1  0.000  0.000  0.418-  26 1.42  30 1.42  46 1.42
   2  0.200  0.000  0.418-  27 1.42  26 1.42  47 1.42
   3  0.400  0.000  0.418-  28 1.42  27 1.42  48 1.42
   4  0.600  0.000  0.418-  29 1.42  28 1.42  49 1.42
   5  0.800  0.000  0.418-  30 1.42  29 1.42  50 1.42
   6  0.000  0.200  0.418-  31 1.42  35 1.42  26 1.42
   7  0.200  0.200  0.418-  32 1.42  31 1.42  27 1.42
   8  0.400  0.200  0.418-  33 1.42  32 1.42  28 1.42
   9  0.600  0.200  0.418-  34 1.42  33 1.42  29 1.42
  10  0.800  0.200  0.418-  35 1.42  34 1.42  30 1.42
  11  0.000  0.400  0.418-  36 1.42  40 1.42  31 1.42
  12  0.200  0.400  0.418-  37 1.42  36 1.42  32 1.42
  13  0.400  0.400  0.418-  51 1.00  38 1.42  37 1.42  33 1.42
  14  0.600  0.400  0.418-  39 1.42  38 1.42  34 1.42
  15  0.800  0.400  0.418-  40 1.42  39 1.42  35 1.42
  16  0.000  0.600  0.418-  41 1.42  45 1.42  36 1.42
  17  0.200  0.600  0.418-  42 1.42  41 1.42  37 1.42
  18  0.400  0.600  0.418-  43 1.42  42 1.42  38 1.42
  19  0.600  0.600  0.418-  43 1.42  39 1.42  44 1.42
  20  0.800  0.600  0.418-  45 1.42  40 1.42  44 1.42
  21  0.000  0.800  0.418-  46 1.42  50 1.42  41 1.42
  22  0.200  0.800  0.418-  47 1.42  46 1.42  42 1.42
  23  0.400  0.800  0.418-  48 1.42  47 1.42  43 1.42
  24  0.600  0.800  0.418-  49 1.42  48 1.42  44 1.42
  25  0.800  0.800  0.418-  50 1.42  49 1.42  45 1.42
  26  0.067  0.067  0.418-   1 1.42   2 1.42   6 1.42
  27  0.267  0.067  0.418-   2 1.42   3 1.42   7 1.42
  28  0.467  0.067  0.418-   3 1.42   4 1.42   8 1.42
  29  0.667  0.067  0.418-   4 1.42   5 1.42   9 1.42
  30  0.867  0.067  0.418-   5 1.42   1 1.42  10 1.42
  31  0.067  0.267  0.418-   6 1.42   7 1.42  11 1.42
  32  0.267  0.267  0.418-   7 1.42   8 1.42  12 1.42
  33  0.467  0.267  0.418-   8 1.42   9 1.42  13 1.42  51 1.74
  34  0.667  0.267  0.418-   9 1.42  10 1.42  14 1.42
  35  0.867  0.267  0.418-  10 1.42   6 1.42  15 1.42
  36  0.067  0.467  0.418-  11 1.42  12 1.42  16 1.42
  37  0.267  0.467  0.418-  12 1.42  13 1.42  17 1.42  51 1.74
  38  0.467  0.467  0.418-  13 1.42  14 1.42  18 1.42  51 1.74
  39  0.667  0.467  0.418-  14 1.42  15 1.42  19 1.42
  40  0.867  0.467  0.418-  15 1.42  11 1.42  20 1.42
  41  0.067  0.667  0.418-  16 1.42  17 1.42  21 1.42
  42  0.267  0.667  0.418-  17 1.42  18 1.42  22 1.42
  43  0.467  0.667  0.418-  18 1.42  19 1.42  23 1.42
  44  0.667  0.667  0.418-  19 1.42  20 1.42  24 1.42
  45  0.867  0.667  0.418-  20 1.42  16 1.42  25 1.42
  46  0.067  0.867  0.418-  21 1.42  22 1.42   1 1.42
  47  0.267  0.867  0.418-  22 1.42  23 1.42   2 1.42
  48  0.467  0.867  0.418-  23 1.42  24 1.42   3 1.42
  49  0.667  0.867  0.418-  24 1.42  25 1.42   4 1.42
  50  0.867  0.867  0.418-  25 1.42  21 1.42   5 1.42
  51  0.400  0.400  0.468-  13 1.00  38 1.74  37 1.74  33 1.74
 
  LATTYP: Found a hexagonal cell.
 ALAT       =    12.2999994816
 C/A-ratio  =     1.6260163287
  
  Lattice vectors:
  
 A1 = (   6.1499993860, -10.6521122225,   0.0000000000)
 A2 = ( -12.3000001905,   0.0000000000,   0.0000000000)
 A3 = (   0.0000000000,   0.0000000000, -20.0000000000)


Analysis of symmetry for initial positions (statically):
=====================================================================
 Subroutine PRICEL returns:
 Original cell was already a primitive cell.
 

 Routine SETGRP: Setting up the symmetry group for a 
 hexagonal supercell.


 Subroutine GETGRP returns: Found  2 space group operations
 (whereof  2 operations were pure point group operations)
 out of a pool of 24 trial point group operations.


The static configuration has the point symmetry C_1h.


Analysis of symmetry for dynamics (positions and initial velocities):
=====================================================================
 Subroutine PRICEL returns:
 Original cell was already a primitive cell.
 

 Routine SETGRP: Setting up the symmetry group for a 
 hexagonal supercell.


 Subroutine GETGRP returns: Found  2 space group operations
 (whereof  2 operations were pure point group operations)
 out of a pool of 24 trial point group operations.


The dynamic configuration has the point symmetry C_1h.


 Subroutine INISYM returns: Found  2 space group operations
 (whereof  2 operations are pure point group operations),
 and found     1 'primitive' translations

 
 
 KPOINTS: K-POINTS                                

Automatic generation of k-mesh.
Space group operators:
 irot       det(A)        alpha          n_x          n_y          n_z        tau_x        tau_y        tau_z
    1     1.000000     0.000000     1.000000     0.000000     0.000000     0.000000     0.000000     0.000000
    2    -1.000000   180.000000     0.500000    -0.866025     0.000000     0.000000     0.000000     0.000000
 
 Subroutine IBZKPT returns following result:
 ===========================================
 
 Found      4 irreducible k-points:
 
 Following reciprocal coordinates:
            Coordinates               Weight
  0.000000  0.000000  0.000000      1.000000
  0.333333  0.000000  0.000000      4.000000
  0.333333  0.333333  0.000000      2.000000
 -0.333333  0.333333  0.000000      2.000000
 
 Following cartesian coordinates:
            Coordinates               Weight
  0.000000  0.000000  0.000000      1.000000
  0.027100 -0.015646  0.000000      4.000000
  0.027100  0.015646  0.000000      2.000000
 -0.027100  0.046939  0.000000      2.000000
 


--------------------------------------------------------------------------------------------------------




 Dimension of arrays:
   k-points           NKPTS =      4   k-points in BZ     NKDIM =      4   number of bands    NBANDS=    132
   number of dos      NEDOS =    301   number of ions     NIONS =     51
   non local maximal  LDIM  =      4   non local SUM 2l+1 LMDIM =      8
   total plane-waves  NPLWV = 896000
   max r-space proj   IRMAX =      1   max aug-charges    IRDMAX=  35685
   dimension x,y,z NGX =    80 NGY =   80 NGZ =  140
   dimension x,y,z NGXF=   160 NGYF=  160 NGZF=  280
   support grid    NGXF=   320 NGYF=  320 NGZF=  560
   ions per type =              50   1
   NGX,Y,Z   is equivalent  to a cutoff of  10.81, 10.81, 11.64 a.u.
   NGXF,Y,Z  is equivalent  to a cutoff of  21.63, 21.63, 23.27 a.u.

 SYSTEM =                                          
 POSCAR =  generated by phonopy                    

 Startparameter for this run:
   NWRITE =      2    write-flag & timer
   PREC   = accura    normal or accurate (medium, high low for compatibility)
   ISTART =      1    job   : 0-new  1-cont  2-samecut
   ICHARG =      1    charge: 1-file 2-atom 10-const
   ISPIN  =      1    spin polarized calculation?
   LNONCOLLINEAR =      F non collinear calculations
   LSORBIT =      F    spin-orbit coupling
   INIWAV =      1    electr: 0-lowe 1-rand  2-diag
   LASPH  =      F    aspherical Exc in radial PAW
   METAGGA=      F    non-selfconsistent MetaGGA calc.

 Electronic Relaxation 1
   ENCUT  =  400.0 eV  29.40 Ry    5.42 a.u.  20.06 20.06 32.61*2*pi/ulx,y,z
   ENINI  =  400.0     initial cutoff
   ENAUG  =  644.9 eV  augmentation charge cutoff
   NELM   =    300;   NELMIN=  2; NELMDL=  0     # of ELM steps 
   EDIFF  = 0.1E-04   stopping-criterion for ELM
   LREAL  =      F    real-space projection
   NLSPLINE    = F    spline interpolate recip. space projectors
   LCOMPAT=      F    compatible to vasp.4.4
   GGA_COMPAT  = T    GGA compatible to vasp.4.4-vasp.4.6
   LMAXPAW     = -100 max onsite density
   LMAXMIX     =    2 max onsite mixed and CHGCAR
   VOSKOWN=      0    Vosko Wilk Nusair interpolation
   ROPT   =    0.00000   0.00000
 Ionic relaxation
   EDIFFG = -.1E-02   stopping-criterion for IOM
   NSW    =      1    number of steps for IOM
   NBLOCK =      1;   KBLOCK =      1    inner block; outer block 
   IBRION =     -1    ionic relax: 0-MD 1-quasi-New 2-CG
   NFREE  =      0    steps in history (QN), initial steepest desc. (CG)
   ISIF   =      2    stress and relaxation
   IWAVPR =     10    prediction:  0-non 1-charg 2-wave 3-comb
   ISYM   =      2    0-nonsym 1-usesym 2-fastsym
   LCORR  =      T    Harris-Foulkes like correction to forces

   POTIM  = 0.5000    time-step for ionic-motion
   TEIN   =    0.0    initial temperature
   TEBEG  =    0.0;   TEEND  =   0.0 temperature during run
   SMASS  =  -3.00    Nose mass-parameter (am)
   estimated Nose-frequenzy (Omega)   =  0.10E-29 period in steps =****** mass=  -0.346E-26a.u.
   SCALEE = 1.0000    scale energy and forces
   NPACO  =    256;   APACO  = 16.0  distance and # of slots for P.C.
   PSTRESS=    0.0 pullay stress

  Mass of Ions in am
   POMASS =  12.01 16.00
  Ionic Valenz
   ZVAL   =   4.00  6.00
  Atomic Wigner-Seitz radii
   RWIGS  =  -1.00 -1.00
  virtual crystal weights 
   VCA    =   1.00  1.00
   NELECT =     206.0000    total number of electrons
   NUPDOWN=      -1.0000    fix difference up-down

 DOS related values:
   EMIN   =  10.00;   EMAX   =-10.00  energy-range for DOS
   EFERMI =   0.00
   ISMEAR =     0;   SIGMA  =   0.05  broadening in eV -4-tet -1-fermi 0-gaus

 Electronic relaxation 2 (details)
   IALGO  =     68    algorithm
   LDIAG  =      T    sub-space diagonalisation (order eigenvalues)
   LSUBROT=      F    optimize rotation matrix (better conditioning)
   TURBO    =      0    0=normal 1=particle mesh
   IRESTART =      0    0=no restart 2=restart with 2 vectors
   NREBOOT  =      0    no. of reboots
   NMIN     =      0    reboot dimension
   EREF     =   0.00    reference energy to select bands
   IMIX   =      4    mixing-type and parameters
     AMIX     =   0.40;   BMIX     =  1.00
     AMIX_MAG =   1.60;   BMIX_MAG =  1.00
     AMIN     =   0.10
     WC   =   100.;   INIMIX=   1;  MIXPRE=   1;  MAXMIX= -45

 Intra band minimization:
   WEIMIN = 0.0000     energy-eigenvalue tresh-hold
   EBREAK =  0.19E-07  absolut break condition
   DEPER  =   0.30     relativ break condition  

   TIME   =   0.40     timestep for ELM

  volume/ion in A,a.u.               =      51.38       346.73
  Fermi-wavevector in a.u.,A,eV,Ry     =   0.701305  1.325274  6.691736  0.491829
  Thomas-Fermi vector in A             =   1.785695
 
 Write flags
   LWAVE        =      F    write WAVECAR
   LDOWNSAMPLE  =      F    k-point downsampling of WAVECAR
   LCHARG       =      F    write CHGCAR
   LVTOT        =      F    write LOCPOT, total local potential
   LVHAR        =      F    write LOCPOT, Hartree potential only
   LELF         =      F    write electronic localiz. function (ELF)
   LORBIT       =      0    0 simple, 1 ext, 2 COOP (PROOUT), +10 PAW based schemes


 Dipole corrections
   LMONO  =      F    monopole corrections only (constant potential shift)
   LDIPOL =      F    correct potential (dipole corrections)
   IDIPOL =      0    1-x, 2-y, 3-z, 4-all directions 
   EPSILON=  1.0000000 bulk dielectric constant

 Exchange correlation treatment:
   GGA     =    --    GGA type
   LEXCH   =     8    internal setting for exchange type
   VOSKOWN=      0    Vosko Wilk Nusair interpolation
   LHFCALC =     F    Hartree Fock is set to
   LHFONE  =     F    Hartree Fock one center treatment
   AEXX    =    0.0000 exact exchange contribution

 Linear response parameters
   LEPSILON=     F    determine dielectric tensor
   LRPA    =     F    only Hartree local field effects (RPA)
   LNABLA  =     F    use nabla operator in PAW spheres
   LVEL    =     F    velocity operator in full k-point grid
   LINTERFAST=   F  fast interpolation
   KINTER  =     0    interpolate to denser k-point grid
   CSHIFT  =0.1000    complex shift for real part using Kramers Kronig
   OMEGAMAX=  -1.0    maximum frequency
   DEG_THRESHOLD= 0.2000000E-02 threshold for treating states as degnerate
   RTIME   =   -0.100 relaxation time in fs
  (WPLASMAI=    0.000 imaginary part of plasma frequency in eV, 0.658/RTIME)
   DFIELD  = 0.0000000 0.0000000 0.0000000 field for delta impulse in time
 
 Orbital magnetization related:
   ORBITALMAG=     F  switch on orbital magnetization
   LCHIMAG   =     F  perturbation theory with respect to B field
   DQ        =  0.001000  dq finite difference perturbation B field
   LLRAUG    =     F  two centre corrections for induced B field



--------------------------------------------------------------------------------------------------------


 Static calculation
 charge density and potential will be updated during run
 non-spin polarized calculation
 RMM-DIIS sequential band-by-band and
  variant of blocked Davidson during initial phase
 perform sub-space diagonalisation
    before iterative eigenvector-optimisation
 modified Broyden-mixing scheme, WC =      100.0
 initial mixing is a Kerker type mixing with AMIX =  0.4000 and BMIX =      1.0000
 Hartree-type preconditioning will be used
 using additional bands           29
 reciprocal scheme for non local part
 use partial core corrections
 calculate Harris-corrections to forces 
   (improved forces if not selfconsistent)
 use gradient corrections 
 use of overlap-Matrix (Vanderbilt PP)
 Gauss-broadening in eV      SIGMA  =   0.05


--------------------------------------------------------------------------------------------------------


  energy-cutoff  :      400.00
  volume of cell :     2620.42
      direct lattice vectors                 reciprocal lattice vectors
    12.300000191  0.000000000  0.000000000     0.081300812 -0.046939053  0.000000000
     6.150000804 10.652112223  0.000000000     0.000000000  0.093878095  0.000000000
     0.000000000  0.000000000 20.000000000     0.000000000  0.000000000  0.050000000

  length of vectors
    12.300000191 12.300000191 20.000000000     0.093878095  0.093878095  0.050000000


 
 old parameters found on file WAVECAR:
  energy-cutoff  :      400.00
  volume of cell :     2620.42
      direct lattice vectors                 reciprocal lattice vectors
    12.300000191  0.000000000  0.000000000     0.081300812 -0.046939053  0.000000000
     6.150000804 10.652112223  0.000000000     0.000000000  0.093878095  0.000000000
     0.000000000  0.000000000 20.000000000     0.000000000  0.000000000  0.050000000

  length of vectors

 
 k-points in units of 2pi/SCALE and weight: K-POINTS                                
   0.00000000  0.00000000  0.00000000       0.111
   0.02710027 -0.01564635  0.00000000       0.444
   0.02710027  0.01564635  0.00000000       0.222
  -0.02710027  0.04693905  0.00000000       0.222
 
 k-points in reciprocal lattice and weights: K-POINTS                                
   0.00000000  0.00000000  0.00000000       0.111
   0.33333333  0.00000000  0.00000000       0.444
   0.33333333  0.33333333  0.00000000       0.222
  -0.33333333  0.33333333  0.00000000       0.222
 
 position of ions in fractional coordinates (direct lattice) 
   0.00000000  0.00000000  0.41799748
   0.20000000  0.00000000  0.41799748
   0.40000000  0.00000000  0.41799748
   0.60000000  0.00000000  0.41799748
   0.80000000  0.00000000  0.41799748
   0.00000000  0.20000000  0.41799748
   0.20000000  0.20000000  0.41799748
   0.40000000  0.20000000  0.41799748
   0.60000000  0.20000000  0.41799748
   0.80000000  0.20000000  0.41799748
   0.00000000  0.40000000  0.41799748
   0.20000000  0.40000000  0.41799748
   0.40000000  0.40000000  0.41799748
   0.60000000  0.40000000  0.41799748
   0.80000000  0.40000000  0.41799748
   0.00000000  0.60000000  0.41799748
   0.20000000  0.60000000  0.41799748
   0.40000000  0.60000000  0.41799748
   0.60000000  0.60000000  0.41799748
   0.80000000  0.60000000  0.41799748
   0.00000000  0.80000000  0.41799748
   0.20000000  0.80000000  0.41799748
   0.40000000  0.80000000  0.41799748
   0.60000000  0.80000000  0.41799748
   0.80000000  0.80000000  0.41799748
   0.06666667  0.06666660  0.41800609
   0.26666667  0.06666660  0.41800609
   0.46666667  0.06666660  0.41800609
   0.66666667  0.06666660  0.41800609
   0.86666667  0.06666660  0.41800609
   0.06666667  0.26666660  0.41800609
   0.26666667  0.26666660  0.41800609
   0.46666667  0.26666660  0.41800609
   0.66666667  0.26666660  0.41800609
   0.86666667  0.26666660  0.41800609
   0.06666667  0.46666660  0.41800609
   0.26666667  0.46666660  0.41800609
   0.46666667  0.46666660  0.41800609
   0.66666667  0.46666660  0.41800609
   0.86666667  0.46666660  0.41800609
   0.06666667  0.66666660  0.41800609
   0.26666667  0.66666660  0.41800609
   0.46666667  0.66666660  0.41800609
   0.66666667  0.66666660  0.41750609
   0.86666667  0.66666660  0.41800609
   0.06666667  0.86666660  0.41800609
   0.26666667  0.86666660  0.41800609
   0.46666667  0.86666660  0.41800609
   0.66666667  0.86666660  0.41800609
   0.86666667  0.86666660  0.41800609
   0.40000000  0.40000000  0.46800609
 
 position of ions in cartesian coordinates  (Angst):
   0.00000000  0.00000000  8.35994958
   2.46000004  0.00000000  8.35994958
   4.92000008  0.00000000  8.35994958
   7.38000011  0.00000000  8.35994958
   9.84000015  0.00000000  8.35994958
   1.23000016  2.13042244  8.35994958
   3.69000020  2.13042244  8.35994958
   6.15000024  2.13042244  8.35994958
   8.61000028  2.13042244  8.35994958
  11.07000031  2.13042244  8.35994958
   2.46000032  4.26084489  8.35994958
   4.92000036  4.26084489  8.35994958
   7.38000040  4.26084489  8.35994958
   9.84000044  4.26084489  8.35994958
  12.30000047  4.26084489  8.35994958
   3.69000048  6.39126733  8.35994958
   6.15000052  6.39126733  8.35994958
   8.61000056  6.39126733  8.35994958
  11.07000060  6.39126733  8.35994958
  13.53000064  6.39126733  8.35994958
   4.92000064  8.52168978  8.35994958
   7.38000068  8.52168978  8.35994958
   9.84000072  8.52168978  8.35994958
  12.30000076  8.52168978  8.35994958
  14.76000080  8.52168978  8.35994958
   1.22999970  0.71014014  8.36012184
   3.68999974  0.71014014  8.36012184
   6.14999977  0.71014014  8.36012184
   8.60999981  0.71014014  8.36012184
  11.06999985  0.71014014  8.36012184
   2.45999986  2.84056258  8.36012184
   4.91999990  2.84056258  8.36012184
   7.37999994  2.84056258  8.36012184
   9.83999997  2.84056258  8.36012184
  12.30000001  2.84056258  8.36012184
   3.69000002  4.97098503  8.36012184
   6.15000006  4.97098503  8.36012184
   8.61000010  4.97098503  8.36012184
  11.07000013  4.97098503  8.36012184
  13.53000017  4.97098503  8.36012184
   4.92000018  7.10140747  8.36012184
   7.38000022  7.10140747  8.36012184
   9.84000026  7.10140747  8.36012184
  12.30000030  7.10140747  8.35012184
  14.76000033  7.10140747  8.36012184
   6.15000034  9.23182991  8.36012184
   8.61000038  9.23182991  8.36012184
  11.07000042  9.23182991  8.36012184
  13.53000046  9.23182991  8.36012184
  15.99000049  9.23182991  8.36012184
   7.38000040  4.26084489  9.36012184
 


--------------------------------------------------------------------------------------------------------


 k-point  1 :   0.0000 0.0000 0.0000  plane waves:   47639
 k-point  2 :   0.3333 0.0000 0.0000  plane waves:   47601
 k-point  3 :   0.3333 0.3333 0.0000  plane waves:   47601
 k-point  4 :  -0.3333 0.3333 0.0000  plane waves:   47598

 maximum and minimum number of plane-waves per node :      5975     5928

 maximum number of plane-waves:     47639
 maximum index in each direction: 
   IXMAX=   20   IYMAX=   20   IZMAX=   32
   IXMIN=  -20   IYMIN=  -20   IZMIN=  -32


 parallel 3D FFT for wavefunctions:
    minimum data exchange during FFTs selected (reduces bandwidth)
 parallel 3D FFT for charge:
    minimum data exchange during FFTs selected (reduces bandwidth)


 total amount of memory used by VASP MPI-rank0    87233. kBytes
=======================================================================

   base      :      30000. kBytes
   nonl-proj :       7912. kBytes
   fftplans  :      26248. kBytes
   grid      :      14579. kBytes
   one-center:         21. kBytes
   wavefun   :       8473. kBytes
 
     INWAV:  cpu time    0.7026: real time    0.7031
 Broyden mixing: mesh for mixing (old mesh)
   NGX = 41   NGY = 41   NGZ = 65
  (NGX  =160   NGY  =160   NGZ  =280)
  gives a total of 109265 points

 initial charge density was supplied:
 number of electron     206.0000000 magnetization 
 keeping initial charge density in first step


--------------------------------------------------------------------------------------------------------


 Maximum index for augmentation-charges         1119 (set IRDMAX)


--------------------------------------------------------------------------------------------------------


 First call to EWALD:  gamma=   0.129
 Maximum number of real-space cells 3x 3x 2
 Maximum number of reciprocal cells 3x 3x 4

    FEWALD:  cpu time    0.0014: real time    0.0028


--------------------------------------- Iteration      1(   1)  ---------------------------------------


    POTLOK:  cpu time    0.1059: real time    0.1078
    SETDIJ:  cpu time    0.0824: real time    0.0841
     EDDAV:  cpu time    3.2862: real time    3.2889
       DOS:  cpu time    0.0004: real time    0.0005
    CHARGE:  cpu time    0.3178: real time    0.3181
    MIXING:  cpu time    0.0064: real time    0.0065
    --------------------------------------------
      LOOP:  cpu time    3.7992: real time    3.8059

 eigenvalue-minimisations  :  1080
 total energy-change (2. order) :-0.4535020E+03  (-0.2274191E+02)
 number of electron     206.0000000 magnetization 
 augmentation part        5.5173508 magnetization 

 Broyden mixing:
  rms(total) = 0.38996E-01    rms(broyden)= 0.38967E-01
  rms(prec ) = 0.40056E-01
  weight for this iteration     100.00

 Free energy of the ion-electron system (eV)
  ---------------------------------------------------
  alpha Z        PSCENC =        82.54348252
  Ewald energy   TEWEN  =     34516.48549526
  -Hartree energ DENC   =    -41034.80035594
  -exchange      EXHF   =         0.00000000
  -V(xc)+E(xc)   XCENC  =       721.37968259
  PAW double counting   =     22781.19595426   -22817.52509957
  entropy T*S    EENTRO =        -0.00050825
  eigenvalues    EBANDS =     -2491.40499460
  atomic energy  EATOM  =      7788.62438962
  Solvation  Ediel_sol  =         0.00000000
  ---------------------------------------------------
  free energy    TOTEN  =      -453.50195411 eV

  energy without entropy =     -453.50144586  energy(sigma->0) =     -453.50169998


--------------------------------------------------------------------------------------------------------




--------------------------------------- Iteration      1(   2)  ---------------------------------------


    POTLOK:  cpu time    0.1039: real time    0.1058
    SETDIJ:  cpu time    0.0795: real time    0.0810
    EDDIAG:  cpu time    0.6314: real time    0.6315
  RMM-DIIS:  cpu time    2.9855: real time    2.9868
    ORTHCH:  cpu time    0.0345: real time    0.0345
       DOS:  cpu time    0.0004: real time    0.0004
    CHARGE:  cpu time    0.3210: real time    0.3215
    MIXING:  cpu time    0.0063: real time    0.0064
    --------------------------------------------
      LOOP:  cpu time    4.1625: real time    4.1679

 eigenvalue-minimisations  :  1129
 total energy-change (2. order) :-0.7936251E+00  (-0.7950408E+00)
 number of electron     206.0000000 magnetization 
 augmentation part        5.5417582 magnetization 

 Broyden mixing:
  rms(total) = 0.16015E-01    rms(broyden)= 0.15973E-01
  rms(prec ) = 0.17014E-01
  weight for this iteration     100.00

 eigenvalues of (default mixing * dielectric matrix)
  average eigenvalue GAMMA=   0.7360
  0.7360

 Free energy of the ion-electron system (eV)
  ---------------------------------------------------
  alpha Z        PSCENC =        82.54348252
  Ewald energy   TEWEN  =     34516.48549526
  -Hartree energ DENC   =    -41032.78277180
  -exchange      EXHF   =         0.00000000
  -V(xc)+E(xc)   XCENC  =       721.29426881
  PAW double counting   =     22830.96070265   -22867.24925588
  entropy T*S    EENTRO =        -0.00010211
  eigenvalues    EBANDS =     -2494.17178829
  atomic energy  EATOM  =      7788.62438962
  Solvation  Ediel_sol  =         0.00000000
  ---------------------------------------------------
  free energy    TOTEN  =      -454.29557922 eV

  energy without entropy =     -454.29547711  energy(sigma->0) =     -454.29552817


--------------------------------------------------------------------------------------------------------




--------------------------------------- Iteration      1(   3)  ---------------------------------------


    POTLOK:  cpu time    0.0958: real time    0.0959
    SETDIJ:  cpu time    0.0790: real time    0.0790
    EDDIAG:  cpu time    0.6310: real time    0.6313
  RMM-DIIS:  cpu time    3.2533: real time    3.2547
    ORTHCH:  cpu time    0.0346: real time    0.0350
       DOS:  cpu time    0.0003: real time    0.0003
    CHARGE:  cpu time    0.3151: real time    0.3151
    MIXING:  cpu time    0.0058: real time    0.0058
    --------------------------------------------
      LOOP:  cpu time    4.4149: real time    4.4171

 eigenvalue-minimisations  :  1231
 total energy-change (2. order) :-0.4110453E-01  (-0.4582603E-01)
 number of electron     206.0000000 magnetization 
 augmentation part        5.5435733 magnetization 

 Broyden mixing:
  rms(total) = 0.11842E-01    rms(broyden)= 0.11831E-01
  rms(prec ) = 0.12254E-01
  weight for this iteration     100.00

 eigenvalues of (default mixing * dielectric matrix)
  average eigenvalue GAMMA=   0.6737
  0.6737  0.6737

 Free energy of the ion-electron system (eV)
  ---------------------------------------------------
  alpha Z        PSCENC =        82.54348252
  Ewald energy   TEWEN  =     34516.48549526
  -Hartree energ DENC   =    -41033.33335253
  -exchange      EXHF   =         0.00000000
  -V(xc)+E(xc)   XCENC  =       721.32007248
  PAW double counting   =     22821.26871698   -22857.56896690
  entropy T*S    EENTRO =        -0.00012295
  eigenvalues    EBANDS =     -2493.67639822
  atomic energy  EATOM  =      7788.62438962
  Solvation  Ediel_sol  =         0.00000000
  ---------------------------------------------------
  free energy    TOTEN  =      -454.33668375 eV

  energy without entropy =     -454.33656080  energy(sigma->0) =     -454.33662227


--------------------------------------------------------------------------------------------------------




--------------------------------------- Iteration      1(   4)  ---------------------------------------


    POTLOK:  cpu time    0.0959: real time    0.0983
    SETDIJ:  cpu time    0.0788: real time    0.0802
    EDDIAG:  cpu time    0.6338: real time    0.6345
  RMM-DIIS:  cpu time    3.1566: real time    3.1582
    ORTHCH:  cpu time    0.0347: real time    0.0347
       DOS:  cpu time    0.0003: real time    0.0003
    CHARGE:  cpu time    0.3148: real time    0.3149
    MIXING:  cpu time    0.0063: real time    0.0063
    --------------------------------------------
      LOOP:  cpu time    4.3213: real time    4.3274

 eigenvalue-minimisations  :  1190
 total energy-change (2. order) :-0.3218858E-02  (-0.3318114E-02)
 number of electron     206.0000000 magnetization 
 augmentation part        5.5455706 magnetization 

 Broyden mixing:
  rms(total) = 0.11966E-01    rms(broyden)= 0.11965E-01
  rms(prec ) = 0.12314E-01
  weight for this iteration     100.00

 eigenvalues of (default mixing * dielectric matrix)
  average eigenvalue GAMMA=   0.9878
  1.2079  1.2079  0.5476

 Free energy of the ion-electron system (eV)
  ---------------------------------------------------
  alpha Z        PSCENC =        82.54348252
  Ewald energy   TEWEN  =     34516.48549526
  -Hartree energ DENC   =    -41033.59384392
  -exchange      EXHF   =         0.00000000
  -V(xc)+E(xc)   XCENC  =       721.33171627
  PAW double counting   =     22814.56037364   -22850.86650036
  entropy T*S    EENTRO =        -0.00011011
  eigenvalues    EBANDS =     -2493.42490553
  atomic energy  EATOM  =      7788.62438962
  Solvation  Ediel_sol  =         0.00000000
  ---------------------------------------------------
  free energy    TOTEN  =      -454.33990261 eV

  energy without entropy =     -454.33979249  energy(sigma->0) =     -454.33984755


--------------------------------------------------------------------------------------------------------




--------------------------------------- Iteration      1(   5)  ---------------------------------------


    POTLOK:  cpu time    0.0960: real time    0.0963
    SETDIJ:  cpu time    0.0790: real time    0.0790
    EDDIAG:  cpu time    0.6382: real time    0.6388
  RMM-DIIS:  cpu time    3.1905: real time    3.1923
    ORTHCH:  cpu time    0.0339: real time    0.0352
       DOS:  cpu time    0.0003: real time    0.0003
    CHARGE:  cpu time    0.3238: real time    0.3238
    MIXING:  cpu time    0.0063: real time    0.0063
    --------------------------------------------
      LOOP:  cpu time    4.3679: real time    4.3720

 eigenvalue-minimisations  :  1200
 total energy-change (2. order) :-0.1514291E-03  (-0.2501136E-03)
 number of electron     206.0000000 magnetization 
 augmentation part        5.5448275 magnetization 

 Broyden mixing:
  rms(total) = 0.48349E-02    rms(broyden)= 0.48344E-02
  rms(prec ) = 0.49545E-02
  weight for this iteration     100.00

 eigenvalues of (default mixing * dielectric matrix)
  average eigenvalue GAMMA=   1.1594
  1.4848  1.4848  0.5702  1.0980

 Free energy of the ion-electron system (eV)
  ---------------------------------------------------
  alpha Z        PSCENC =        82.54348252
  Ewald energy   TEWEN  =     34516.48549526
  -Hartree energ DENC   =    -41034.31262395
  -exchange      EXHF   =         0.00000000
  -V(xc)+E(xc)   XCENC  =       721.36170432
  PAW double counting   =     22792.48069797   -22828.80236095
  entropy T*S    EENTRO =        -0.00011176
  eigenvalues    EBANDS =     -2492.72072707
  atomic energy  EATOM  =      7788.62438962
  Solvation  Ediel_sol  =         0.00000000
  ---------------------------------------------------
  free energy    TOTEN  =      -454.34005404 eV

  energy without entropy =     -454.33994228  energy(sigma->0) =     -454.33999816


--------------------------------------------------------------------------------------------------------




--------------------------------------- Iteration      1(   6)  ---------------------------------------


    POTLOK:  cpu time    0.0968: real time    0.0991
    SETDIJ:  cpu time    0.0788: real time    0.0803
    EDDIAG:  cpu time    0.6299: real time    0.6312
  RMM-DIIS:  cpu time    3.1738: real time    3.1757
    ORTHCH:  cpu time    0.0345: real time    0.0345
       DOS:  cpu time    0.0003: real time    0.0003
    CHARGE:  cpu time    0.3143: real time    0.3144
    MIXING:  cpu time    0.0072: real time    0.0072
    --------------------------------------------
      LOOP:  cpu time    4.3358: real time    4.3429

 eigenvalue-minimisations  :  1212
 total energy-change (2. order) :-0.3575768E-04  (-0.3458644E-04)
 number of electron     206.0000000 magnetization 
 augmentation part        5.5443266 magnetization 

 Broyden mixing:
  rms(total) = 0.10021E-02    rms(broyden)= 0.10005E-02
  rms(prec ) = 0.10437E-02
  weight for this iteration     100.00

 eigenvalues of (default mixing * dielectric matrix)
  average eigenvalue GAMMA=   1.2335
  2.2263  1.2197  1.2197  0.9329  0.5689

 Free energy of the ion-electron system (eV)
  ---------------------------------------------------
  alpha Z        PSCENC =        82.54348252
  Ewald energy   TEWEN  =     34516.48549526
  -Hartree energ DENC   =    -41034.83930951
  -exchange      EXHF   =         0.00000000
  -V(xc)+E(xc)   XCENC  =       721.38361471
  PAW double counting   =     22776.86375757   -22813.19589736
  entropy T*S    EENTRO =        -0.00011336
  eigenvalues    EBANDS =     -2492.20550924
  atomic energy  EATOM  =      7788.62438962
  Solvation  Ediel_sol  =         0.00000000
  ---------------------------------------------------
  free energy    TOTEN  =      -454.34008979 eV

  energy without entropy =     -454.33997643  energy(sigma->0) =     -454.34003311


--------------------------------------------------------------------------------------------------------




--------------------------------------- Iteration      1(   7)  ---------------------------------------


    POTLOK:  cpu time    0.0980: real time    0.1003
    SETDIJ:  cpu time    0.0789: real time    0.0802
    EDDIAG:  cpu time    0.6341: real time    0.6345
  RMM-DIIS:  cpu time    2.2676: real time    2.2687
    ORTHCH:  cpu time    0.0350: real time    0.0350
       DOS:  cpu time    0.0003: real time    0.0003
    --------------------------------------------
      LOOP:  cpu time    3.1137: real time    3.1189

 eigenvalue-minimisations  :   791
 total energy-change (2. order) :-0.7509540E-05  (-0.1389290E-05)
 number of electron     206.0000000 magnetization 
 augmentation part        5.5443266 magnetization 

 Free energy of the ion-electron system (eV)
  ---------------------------------------------------
  alpha Z        PSCENC =        82.54348252
  Ewald energy   TEWEN  =     34516.48549526
  -Hartree energ DENC   =    -41034.86591418
  -exchange      EXHF   =         0.00000000
  -V(xc)+E(xc)   XCENC  =       721.38433987
  PAW double counting   =     22777.27856448   -22813.61044160
  entropy T*S    EENTRO =        -0.00011416
  eigenvalues    EBANDS =     -2492.17989912
  atomic energy  EATOM  =      7788.62438962
  Solvation  Ediel_sol  =         0.00000000
  ---------------------------------------------------
  free energy    TOTEN  =      -454.34009730 eV

  energy without entropy =     -454.33998314  energy(sigma->0) =     -454.34004022


--------------------------------------------------------------------------------------------------------




 average (electrostatic) potential at core
  the test charge radii are     0.6991  0.7215
  (the norm of the test charge is              1.0000)
       1 -58.2600       2 -58.2598       3 -58.2031       4 -58.0578       5 -58.2032
       6 -58.2598       7 -58.2752       8 -58.1325       9 -58.1322      10 -58.2754
      11 -58.2031      12 -58.1325      13 -60.6853      14 -58.1325      15 -58.2032
      16 -58.0578      17 -58.1322      18 -58.1325      19 -58.0577      20 -58.0651
      21 -58.2032      22 -58.2754      23 -58.2032      24 -58.0651      25 -58.0651
      26 -58.3816      27 -58.2920      28 -58.2211      29 -58.2212      30 -58.2922
      31 -58.2920      32 -58.3140      33 -58.8105      34 -58.3139      35 -58.2921
      36 -58.2211      37 -58.8105      38 -58.8107      39 -58.2211      40 -58.2228
      41 -58.2212      42 -58.3139      43 -58.2211      44 -58.1637      45 -58.1637
      46 -58.2922      47 -58.2921      48 -58.2228      49 -58.1637      50 -58.2230
      51 -81.5738
 
 
 
 E-fermi :  -3.0170     XC(G=0):  -2.2109     alpha+bet : -1.9409


 k-point     1 :       0.0000    0.0000    0.0000
  band No.  band energies     occupation 
      1     -31.7393      2.00000
      2     -22.2709      2.00000
      3     -21.5027      2.00000
      4     -21.5027      2.00000
      5     -21.3943      2.00000
      6     -21.3942      2.00000
      7     -21.3938      2.00000
      8     -20.8740      2.00000
      9     -19.8763      2.00000
     10     -19.8763      2.00000
     11     -19.5490      2.00000
     12     -19.5489      2.00000
     13     -19.5387      2.00000
     14     -19.1911      2.00000
     15     -18.9008      2.00000
     16     -18.9008      2.00000
     17     -18.6434      2.00000
     18     -18.6429      2.00000
     19     -18.6428      2.00000
     20     -17.8839      2.00000
     21     -17.0211      2.00000
     22     -17.0211      2.00000
     23     -16.4776      2.00000
     24     -16.4580      2.00000
     25     -16.4580      2.00000
     26     -16.0493      2.00000
     27     -15.9964      2.00000
     28     -15.9964      2.00000
     29     -15.4972      2.00000
     30     -15.4972      2.00000
     31     -15.4927      2.00000
     32     -15.0893      2.00000
     33     -14.6291      2.00000
     34     -14.6291      2.00000
     35     -14.1495      2.00000
     36     -14.1495      2.00000
     37     -14.1429      2.00000
     38     -13.9643      2.00000
     39     -12.9908      2.00000
     40     -12.9907      2.00000
     41     -12.0309      2.00000
     42     -11.7646      2.00000
     43     -11.7646      2.00000
     44     -11.7614      2.00000
     45     -11.6901      2.00000
     46     -11.6901      2.00000
     47     -11.6514      2.00000
     48     -11.6495      2.00000
     49     -11.6495      2.00000
     50     -11.6486      2.00000
     51     -10.8017      2.00000
     52     -10.8017      2.00000
     53     -10.4282      2.00000
     54     -10.3344      2.00000
     55     -10.2885      2.00000
     56     -10.2885      2.00000
     57     -10.2703      2.00000
     58     -10.0777      2.00000
     59      -9.6861      2.00000
     60      -9.6854      2.00000
     61      -9.3259      2.00000
     62      -9.3250      2.00000
     63      -9.3003      2.00000
     64      -9.2785      2.00000
     65      -9.2783      2.00000
     66      -9.0456      2.00000
     67      -9.0045      2.00000
     68      -9.0044      2.00000
     69      -8.9484      2.00000
     70      -8.9404      2.00000
     71      -8.9402      2.00000
     72      -8.9398      2.00000
     73      -8.9187      2.00000
     74      -8.9187      2.00000
     75      -8.8928      2.00000
     76      -8.4361      2.00000
     77      -7.8024      2.00000
     78      -7.8011      2.00000
     79      -7.3265      2.00000
     80      -7.3244      2.00000
     81      -7.3097      2.00000
     82      -7.3010      2.00000
     83      -7.2996      2.00000
     84      -7.2973      2.00000
     85      -7.1608      2.00000
     86      -7.1603      2.00000
     87      -7.1548      2.00000
     88      -6.7514      2.00000
     89      -6.5077      2.00000
     90      -6.5058      2.00000
     91      -6.2668      2.00000
     92      -6.2464      2.00000
     93      -6.2463      2.00000
     94      -5.9223      2.00000
     95      -5.9217      2.00000
     96      -5.1956      2.00000
     97      -4.7641      2.00000
     98      -4.7629      2.00000
     99      -4.2704      2.00000
    100      -4.2663      2.00000
    101      -4.2663      2.00000
    102      -3.2150      2.00000
    103      -3.2140      2.00000
    104      -2.9160      0.00428
    105      -1.4611      0.00000
    106      -1.4570      0.00000
    107      -1.4569      0.00000
    108      -0.9911      0.00000
    109      -0.9910      0.00000
    110      -0.5427      0.00000
    111       0.4171      0.00000
    112       0.4217      0.00000
    113       0.4219      0.00000
    114       0.5620      0.00000
    115       0.8438      0.00000
    116       0.8439      0.00000
    117       1.2935      0.00000
    118       1.3400      0.00000
    119       1.6790      0.00000
    120       1.8020      0.00000
    121       1.8024      0.00000
    122       1.8027      0.00000
    123       1.8268      0.00000
    124       1.8275      0.00000
    125       2.0300      0.00000
    126       2.1769      0.00000
    127       2.1796      0.00000
    128       2.1796      0.00000
    129       2.3466      0.00000
    130       2.3473      0.00000
    131       2.6118      0.00000
    132       2.7077      0.00000

 k-point     2 :       0.3333    0.0000    0.0000
  band No.  band energies     occupation 
      1     -31.7394      2.00000
      2     -22.1888      2.00000
      3     -21.8691      2.00000
      4     -21.6610      2.00000
      5     -21.4544      2.00000
      6     -21.0345      2.00000
      7     -20.8969      2.00000
      8     -20.7272      2.00000
      9     -20.4199      2.00000
     10     -20.1620      2.00000
     11     -19.7867      2.00000
     12     -19.6988      2.00000
     13     -19.3262      2.00000
     14     -19.2428      2.00000
     15     -19.0614      2.00000
     16     -18.5926      2.00000
     17     -18.4577      2.00000
     18     -18.1211      2.00000
     19     -18.0627      2.00000
     20     -17.5907      2.00000
     21     -17.4976      2.00000
     22     -17.3006      2.00000
     23     -17.2764      2.00000
     24     -16.8512      2.00000
     25     -16.6581      2.00000
     26     -16.1759      2.00000
     27     -15.9776      2.00000
     28     -15.8474      2.00000
     29     -15.2981      2.00000
     30     -15.1695      2.00000
     31     -15.1340      2.00000
     32     -14.8846      2.00000
     33     -14.7816      2.00000
     34     -14.4778      2.00000
     35     -14.4558      2.00000
     36     -13.7669      2.00000
     37     -13.7597      2.00000
     38     -13.1958      2.00000
     39     -13.0891      2.00000
     40     -12.9339      2.00000
     41     -12.9042      2.00000
     42     -12.5850      2.00000
     43     -12.5497      2.00000
     44     -12.3898      2.00000
     45     -12.0218      2.00000
     46     -11.6631      2.00000
     47     -11.4471      2.00000
     48     -11.2960      2.00000
     49     -11.1216      2.00000
     50     -10.9140      2.00000
     51     -10.8498      2.00000
     52     -10.5840      2.00000
     53     -10.5324      2.00000
     54     -10.2851      2.00000
     55     -10.2368      2.00000
     56     -10.1611      2.00000
     57     -10.0488      2.00000
     58      -9.8532      2.00000
     59      -9.8200      2.00000
     60      -9.6537      2.00000
     61      -9.6073      2.00000
     62      -9.5601      2.00000
     63      -9.5264      2.00000
     64      -9.3706      2.00000
     65      -9.3403      2.00000
     66      -9.2596      2.00000
     67      -9.1754      2.00000
     68      -9.0993      2.00000
     69      -9.0823      2.00000
     70      -8.8650      2.00000
     71      -8.7121      2.00000
     72      -8.6645      2.00000
     73      -8.5039      2.00000
     74      -8.4025      2.00000
     75      -8.2873      2.00000
     76      -8.1332      2.00000
     77      -8.0947      2.00000
     78      -8.0656      2.00000
     79      -7.9713      2.00000
     80      -7.8069      2.00000
     81      -7.6202      2.00000
     82      -7.3605      2.00000
     83      -7.3368      2.00000
     84      -7.2655      2.00000
     85      -7.1971      2.00000
     86      -6.9201      2.00000
     87      -6.8732      2.00000
     88      -6.6919      2.00000
     89      -6.5916      2.00000
     90      -6.3480      2.00000
     91      -6.1850      2.00000
     92      -6.0731      2.00000
     93      -5.9212      2.00000
     94      -5.7387      2.00000
     95      -5.6405      2.00000
     96      -5.3225      2.00000
     97      -5.1147      2.00000
     98      -4.9700      2.00000
     99      -4.9225      2.00000
    100      -4.2697      2.00000
    101      -4.1687      2.00000
    102      -3.3363      2.00000
    103      -3.1368      1.99930
    104      -2.8036      0.00000
    105      -1.5911      0.00000
    106      -1.4235      0.00000
    107      -0.8399      0.00000
    108      -0.8191      0.00000
    109      -0.7060      0.00000
    110      -0.6677      0.00000
    111      -0.1284      0.00000
    112      -0.0060      0.00000
    113       0.2930      0.00000
    114       0.7046      0.00000
    115       0.7271      0.00000
    116       1.0995      0.00000
    117       1.1757      0.00000
    118       1.3652      0.00000
    119       1.4631      0.00000
    120       1.5374      0.00000
    121       1.5700      0.00000
    122       1.6376      0.00000
    123       1.8285      0.00000
    124       1.9124      0.00000
    125       2.0387      0.00000
    126       2.2218      0.00000
    127       2.2692      0.00000
    128       2.3292      0.00000
    129       2.3401      0.00000
    130       2.3957      0.00000
    131       2.4580      0.00000
    132       2.7963      0.00000

 k-point     3 :       0.3333    0.3333    0.0000
  band No.  band energies     occupation 
      1     -31.7394      2.00000
      2     -22.1888      2.00000
      3     -21.8691      2.00000
      4     -21.6610      2.00000
      5     -21.4543      2.00000
      6     -21.0345      2.00000
      7     -20.8970      2.00000
      8     -20.7272      2.00000
      9     -20.4199      2.00000
     10     -20.1620      2.00000
     11     -19.7867      2.00000
     12     -19.6988      2.00000
     13     -19.3261      2.00000
     14     -19.2427      2.00000
     15     -19.0614      2.00000
     16     -18.5925      2.00000
     17     -18.4577      2.00000
     18     -18.1211      2.00000
     19     -18.0627      2.00000
     20     -17.5907      2.00000
     21     -17.4976      2.00000
     22     -17.3006      2.00000
     23     -17.2764      2.00000
     24     -16.8511      2.00000
     25     -16.6582      2.00000
     26     -16.1759      2.00000
     27     -15.9776      2.00000
     28     -15.8474      2.00000
     29     -15.2981      2.00000
     30     -15.1695      2.00000
     31     -15.1340      2.00000
     32     -14.8846      2.00000
     33     -14.7816      2.00000
     34     -14.4778      2.00000
     35     -14.4558      2.00000
     36     -13.7669      2.00000
     37     -13.7597      2.00000
     38     -13.1958      2.00000
     39     -13.0891      2.00000
     40     -12.9339      2.00000
     41     -12.9042      2.00000
     42     -12.5850      2.00000
     43     -12.5497      2.00000
     44     -12.3898      2.00000
     45     -12.0218      2.00000
     46     -11.6632      2.00000
     47     -11.4471      2.00000
     48     -11.2959      2.00000
     49     -11.1215      2.00000
     50     -10.9141      2.00000
     51     -10.8498      2.00000
     52     -10.5840      2.00000
     53     -10.5324      2.00000
     54     -10.2850      2.00000
     55     -10.2366      2.00000
     56     -10.1610      2.00000
     57     -10.0490      2.00000
     58      -9.8528      2.00000
     59      -9.8201      2.00000
     60      -9.6545      2.00000
     61      -9.6068      2.00000
     62      -9.5603      2.00000
     63      -9.5274      2.00000
     64      -9.3708      2.00000
     65      -9.3407      2.00000
     66      -9.2585      2.00000
     67      -9.1753      2.00000
     68      -9.0995      2.00000
     69      -9.0820      2.00000
     70      -8.8631      2.00000
     71      -8.7138      2.00000
     72      -8.6650      2.00000
     73      -8.5042      2.00000
     74      -8.4019      2.00000
     75      -8.2871      2.00000
     76      -8.1335      2.00000
     77      -8.0936      2.00000
     78      -8.0660      2.00000
     79      -7.9711      2.00000
     80      -7.8073      2.00000
     81      -7.6203      2.00000
     82      -7.3605      2.00000
     83      -7.3369      2.00000
     84      -7.2672      2.00000
     85      -7.1962      2.00000
     86      -6.9201      2.00000
     87      -6.8742      2.00000
     88      -6.6908      2.00000
     89      -6.5901      2.00000
     90      -6.3490      2.00000
     91      -6.1855      2.00000
     92      -6.0720      2.00000
     93      -5.9210      2.00000
     94      -5.7396      2.00000
     95      -5.6398      2.00000
     96      -5.3223      2.00000
     97      -5.1151      2.00000
     98      -4.9700      2.00000
     99      -4.9225      2.00000
    100      -4.2700      2.00000
    101      -4.1687      2.00000
    102      -3.3366      2.00000
    103      -3.1363      1.99926
    104      -2.8037      0.00000
    105      -1.5911      0.00000
    106      -1.4235      0.00000
    107      -0.8399      0.00000
    108      -0.8190      0.00000
    109      -0.7061      0.00000
    110      -0.6677      0.00000
    111      -0.1284      0.00000
    112      -0.0060      0.00000
    113       0.2930      0.00000
    114       0.7048      0.00000
    115       0.7272      0.00000
    116       1.0988      0.00000
    117       1.1775      0.00000
    118       1.3665      0.00000
    119       1.4652      0.00000
    120       1.5601      0.00000
    121       1.5821      0.00000
    122       1.7462      0.00000
    123       1.8299      0.00000
    124       2.1795      0.00000
    125       2.3361      0.00000
    126       2.3967      0.00000
    127       2.6155      0.00000
    128       2.7882      0.00000
    129       2.8441      0.00000
    130       3.2044      0.00000
    131       3.5947      0.00000
    132       4.1726      0.00000

 k-point     4 :      -0.3333    0.3333    0.0000
  band No.  band energies     occupation 
      1     -31.7394      2.00000
      2     -22.0803      2.00000
      3     -22.0074      2.00000
      4     -21.8014      2.00000
      5     -21.1718      2.00000
      6     -21.1503      2.00000
      7     -20.8672      2.00000
      8     -20.4129      2.00000
      9     -20.3386      2.00000
     10     -20.1719      2.00000
     11     -20.1502      2.00000
     12     -20.1428      2.00000
     13     -19.5666      2.00000
     14     -18.8260      2.00000
     15     -18.6743      2.00000
     16     -18.3723      2.00000
     17     -18.3487      2.00000
     18     -18.3362      2.00000
     19     -17.9298      2.00000
     20     -17.8012      2.00000
     21     -17.6013      2.00000
     22     -17.2614      2.00000
     23     -17.1530      2.00000
     24     -17.1205      2.00000
     25     -16.5428      2.00000
     26     -16.4374      2.00000
     27     -16.2840      2.00000
     28     -15.8083      2.00000
     29     -15.6287      2.00000
     30     -15.1752      2.00000
     31     -14.9692      2.00000
     32     -14.6523      2.00000
     33     -13.9599      2.00000
     34     -13.9391      2.00000
     35     -13.9244      2.00000
     36     -13.8734      2.00000
     37     -13.8637      2.00000
     38     -13.7918      2.00000
     39     -13.6743      2.00000
     40     -13.4947      2.00000
     41     -13.0374      2.00000
     42     -12.4744      2.00000
     43     -12.2538      2.00000
     44     -12.0712      2.00000
     45     -11.8232      2.00000
     46     -11.7729      2.00000
     47     -11.5630      2.00000
     48     -11.5454      2.00000
     49     -11.5225      2.00000
     50     -10.9289      2.00000
     51     -10.8174      2.00000
     52     -10.5300      2.00000
     53     -10.2058      2.00000
     54     -10.2036      2.00000
     55     -10.1939      2.00000
     56     -10.0948      2.00000
     57     -10.0519      2.00000
     58     -10.0218      2.00000
     59      -9.9027      2.00000
     60      -9.7517      2.00000
     61      -9.7478      2.00000
     62      -9.5641      2.00000
     63      -9.4407      2.00000
     64      -9.4071      2.00000
     65      -9.1985      2.00000
     66      -9.0466      2.00000
     67      -9.0327      2.00000
     68      -8.9015      2.00000
     69      -8.8848      2.00000
     70      -8.6887      2.00000
     71      -8.6369      2.00000
     72      -8.6349      2.00000
     73      -8.6237      2.00000
     74      -8.5815      2.00000
     75      -8.3741      2.00000
     76      -8.2524      2.00000
     77      -8.1644      2.00000
     78      -8.0353      2.00000
     79      -7.9837      2.00000
     80      -7.8795      2.00000
     81      -7.8580      2.00000
     82      -7.8548      2.00000
     83      -7.2247      2.00000
     84      -7.1850      2.00000
     85      -7.1263      2.00000
     86      -6.8861      2.00000
     87      -6.7213      2.00000
     88      -6.6126      2.00000
     89      -6.4600      2.00000
     90      -6.2668      2.00000
     91      -6.1018      2.00000
     92      -5.9165      2.00000
     93      -5.9110      2.00000
     94      -5.8976      2.00000
     95      -5.4518      2.00000
     96      -5.4253      2.00000
     97      -5.1219      2.00000
     98      -5.0141      2.00000
     99      -4.9802      2.00000
    100      -4.9577      2.00000
    101      -3.7325      2.00000
    102      -3.4582      2.00000
    103      -3.2798      2.00000
    104      -2.3870      0.00000
    105      -2.2239      0.00000
    106      -0.9284      0.00000
    107      -0.8820      0.00000
    108      -0.8678      0.00000
    109      -0.5383      0.00000
    110      -0.2637      0.00000
    111      -0.2109      0.00000
    112       0.2521      0.00000
    113       0.2583      0.00000
    114       0.2604      0.00000
    115       0.5987      0.00000
    116       0.7927      0.00000
    117       0.9478      0.00000
    118       0.9743      0.00000
    119       1.0618      0.00000
    120       1.7342      0.00000
    121       1.7452      0.00000
    122       1.7676      0.00000
    123       1.8265      0.00000
    124       2.1177      0.00000
    125       2.1212      0.00000
    126       2.1247      0.00000
    127       2.2459      0.00000
    128       2.2479      0.00000
    129       2.3615      0.00000
    130       2.9995      0.00000
    131       3.0121      0.00000
    132       3.0359      0.00000


--------------------------------------------------------------------------------------------------------


 soft charge-density along one line, spin component           1
         0         1         2         3         4         5         6         7         8         9
 total charge-density along one line
 
 pseudopotential strength for first ion, spin component:           1
 10.222  13.594   0.000  -0.000   0.000  -0.000   0.000  -0.000
 13.594  18.076   0.000  -0.000   0.000  -0.000   0.000  -0.000
  0.000   0.000  -4.352  -0.000  -0.000   8.513   0.000   0.000
 -0.000  -0.000  -0.000  -4.344  -0.000   0.000   8.502   0.000
  0.000   0.000  -0.000  -0.000  -4.352   0.000   0.000   8.513
 -0.000  -0.000   8.513   0.000   0.000 -18.786  -0.000  -0.000
  0.000   0.000   0.000   8.502   0.000  -0.000 -18.776  -0.000
 -0.000  -0.000   0.000   0.000   8.513  -0.000  -0.000 -18.787
 total augmentation occupancy for first ion, spin component:           1
  8.358  -3.740   0.001   0.000   0.003   0.000   0.000   0.001
 -3.740   1.729  -0.002  -0.000  -0.003  -0.000  -0.000  -0.000
  0.001  -0.002   1.840  -0.000  -0.001   0.174   0.000   0.000
  0.000  -0.000  -0.000   1.223  -0.000   0.000   0.078   0.000
  0.003  -0.003  -0.001  -0.000   1.839   0.000   0.000   0.174
  0.000  -0.000   0.174   0.000   0.000   0.018   0.000   0.000
  0.000  -0.000   0.000   0.078   0.000   0.000   0.005   0.000
  0.001  -0.000   0.000   0.000   0.174   0.000   0.000   0.018


------------------------ aborting loop because EDIFF is reached ----------------------------------------


    CHARGE:  cpu time    0.3155: real time    0.3163
    FORLOC:  cpu time    0.0304: real time    0.0304
    FORNL :  cpu time    1.6544: real time    1.6549
    STRESS:  cpu time    2.9410: real time    2.9423
    FORCOR:  cpu time    0.1193: real time    0.1197
    FORHAR:  cpu time    0.0494: real time    0.0494
    MIXING:  cpu time    0.0036: real time    0.0036
    OFIELD:  cpu time    0.0001: real time    0.0001

  FORCE on cell =-STRESS in cart. coord.  units (eV):
  Direction    XX          YY          ZZ          XY          YZ          ZX
  --------------------------------------------------------------------------------------
  Alpha Z    82.54348    82.54348    82.54348
  Ewald   41234.39886 41234.41250-47952.34652    -0.01634    -0.01872    -0.03236
  Hartree 40516.58845 40516.60541-39998.49845    -0.01473    -0.01778    -0.03080
  E(xc)    -777.15398  -777.15398  -804.23329    -0.00000     0.00001     0.00001
  Local  -83988.63558-83988.66879 85337.18205     0.03094     0.03658     0.06332
  n-local  -203.75407  -204.11475  -194.69252    -0.10472    -0.19541     0.10347
  augment   -12.38065   -12.38014   -14.04718    -0.00042     0.00000     0.00000
  Kinetic  3161.31093  3166.93845  3596.27771     1.62786     1.50471    -0.86848
  Fock        0.00000     0.00000     0.00000     0.00000     0.00000     0.00000
  -------------------------------------------------------------------------------------
  Total      15.55101    15.54860    52.18529     0.00209     0.00033     0.00057
  in kB       9.50820     9.50673    31.90714     0.00128     0.00020     0.00035
  external pressure =       16.97 kB  Pullay stress =        0.00 kB


 VOLUME and BASIS-vectors are now :
 -----------------------------------------------------------------------------
  energy-cutoff  :      400.00
  volume of cell :     2620.42
      direct lattice vectors                 reciprocal lattice vectors
    12.300000191  0.000000000  0.000000000     0.081300812 -0.046939053  0.000000000
     6.150000804 10.652112223  0.000000000     0.000000000  0.093878095  0.000000000
     0.000000000  0.000000000 20.000000000     0.000000000  0.000000000  0.050000000

  length of vectors
    12.300000191 12.300000191 20.000000000     0.093878095  0.093878095  0.050000000


 FORCES acting on ions
    electron-ion (+dipol)            ewald-force                    non-local-force                 convergence-correction
 -----------------------------------------------------------------------------------------------
   -.148E+01 -.855E+00 0.278E+01   0.135E+01 0.778E+00 -.277E+01   0.852E-01 0.492E-01 -.202E-03   0.235E-03 0.136E-03 0.372E-03
   0.148E+01 -.855E+00 0.277E+01   -.135E+01 0.778E+00 -.276E+01   -.854E-01 0.491E-01 -.908E-04   0.884E-03 0.480E-03 0.218E-04
   0.370E+01 0.642E+01 0.376E+01   -.374E+01 -.649E+01 -.372E+01   -.114E+00 0.768E-01 -.678E-01   0.244E-03 0.189E-02 -.109E-04
   0.960E-03 0.129E+02 0.476E+01   -.105E-03 -.131E+02 -.489E+01   0.423E-04 0.131E-01 0.115E+00   -.789E-03 0.322E-02 -.499E-03
   -.370E+01 0.642E+01 0.379E+01   0.374E+01 -.649E+01 -.374E+01   0.114E+00 0.769E-01 -.712E-01   -.120E-02 0.230E-02 0.735E-04
   -.685E-03 0.171E+01 0.277E+01   -.580E-04 -.156E+01 -.276E+01   -.186E-03 -.985E-01 -.908E-04   0.858E-03 0.526E-03 0.218E-04
   0.117E+02 0.673E+01 0.487E+01   -.113E+02 -.655E+01 -.492E+01   0.108E+00 0.623E-01 0.522E-01   0.626E-03 0.362E-03 -.125E-03
   0.209E+02 0.362E+02 0.186E+02   -.214E+02 -.371E+02 -.190E+02   0.638E+00 0.654E+00 0.545E+00   0.176E-02 0.175E-02 0.994E-04
   -.209E+02 0.362E+02 0.186E+02   0.214E+02 -.371E+02 -.190E+02   -.638E+00 0.654E+00 0.545E+00   -.282E-02 0.258E-02 -.183E-03
   -.117E+02 0.673E+01 0.487E+01   0.113E+02 -.655E+01 -.492E+01   -.108E+00 0.622E-01 0.526E-01   -.148E-02 0.974E-03 -.209E-03
   0.741E+01 -.729E-02 0.376E+01   -.749E+01 0.859E-05 -.372E+01   0.960E-02 -.137E+00 -.678E-01   0.176E-02 -.732E-03 -.109E-04
   0.418E+02 -.418E-01 0.186E+02   -.428E+02 -.102E-03 -.190E+02   0.885E+00 0.226E+00 0.545E+00   0.239E-02 0.649E-03 0.994E-04
   0.136E-02 0.787E-03 0.291E+03   -.323E-04 -.102E-03 -.346E+03   -.131E-03 -.759E-04 0.713E+01   -.129E-02 -.747E-03 0.464E-02
   -.418E+02 -.398E-01 0.186E+02   0.428E+02 0.874E-05 -.190E+02   -.885E+00 0.225E+00 0.550E+00   -.245E-02 -.584E-03 -.511E-03
   -.741E+01 -.783E-02 0.371E+01   0.749E+01 0.396E-03 -.366E+01   -.102E-01 -.137E+00 -.748E-01   -.116E-02 -.428E-03 -.151E-03
   0.111E+02 -.643E+01 0.476E+01   -.113E+02 0.655E+01 -.489E+01   0.114E-01 -.653E-02 0.115E+00   0.239E-02 -.229E-02 -.499E-03
   0.210E+02 -.362E+02 0.186E+02   -.214E+02 0.371E+02 -.190E+02   0.247E+00 -.879E+00 0.545E+00   0.821E-03 -.373E-02 -.183E-03
   -.209E+02 -.362E+02 0.186E+02   0.214E+02 0.371E+02 -.190E+02   -.248E+00 -.879E+00 0.550E+00   -.173E-02 -.183E-02 -.511E-03
   -.112E+02 -.644E+01 0.404E+01   0.113E+02 0.655E+01 -.414E+01   -.111E-01 -.641E-02 0.132E-01   -.245E-02 -.142E-02 -.219E-02
   0.536E-02 -.148E+01 0.205E+01   -.715E-02 0.156E+01 -.198E+01   0.451E-03 -.862E-01 -.112E+00   0.680E-03 -.174E-02 -.177E-02
   0.371E+01 -.641E+01 0.379E+01   -.374E+01 0.649E+01 -.374E+01   0.124E+00 0.604E-01 -.712E-01   0.140E-02 -.219E-02 0.735E-04
   -.190E-04 -.135E+02 0.487E+01   -.138E-04 0.131E+02 -.492E+01   -.495E-04 -.124E+00 0.526E-01   0.105E-03 -.177E-02 -.209E-03
   -.371E+01 -.641E+01 0.371E+01   0.375E+01 0.649E+01 -.366E+01   -.124E+00 0.598E-01 -.748E-01   -.951E-03 -.791E-03 -.151E-03
   -.128E+01 0.747E+00 0.205E+01   0.135E+01 -.786E+00 -.198E+01   -.745E-01 0.435E-01 -.112E+00   -.117E-02 0.146E-02 -.177E-02
   0.128E+01 0.741E+00 0.271E+01   -.135E+01 -.778E+00 -.268E+01   0.747E-01 0.431E-01 -.187E-01   0.103E-02 0.593E-03 -.304E-04
   -.844E-03 -.402E-03 0.248E+01   0.587E-04 0.118E-03 -.248E+01   -.978E-04 -.564E-04 -.101E-01   0.847E-03 0.488E-03 0.125E-03
   0.531E+01 0.407E+01 0.338E+01   -.514E+01 -.429E+01 -.335E+01   -.715E-01 0.336E-02 -.246E-01   0.106E-02 0.185E-02 -.336E-04
   0.607E+01 0.171E+02 0.684E+01   -.581E+01 -.171E+02 -.646E+01   -.660E-01 0.161E+00 -.120E+00   0.515E-03 0.196E-02 -.131E-03
   -.607E+01 0.171E+02 0.685E+01   0.581E+01 -.171E+02 -.647E+01   0.661E-01 0.161E+00 -.122E+00   -.955E-03 0.345E-02 -.267E-04
   -.531E+01 0.407E+01 0.339E+01   0.514E+01 -.429E+01 -.336E+01   0.715E-01 0.339E-02 -.238E-01   -.117E-02 0.209E-02 0.123E-03
   0.618E+01 0.256E+01 0.338E+01   -.629E+01 -.230E+01 -.335E+01   -.328E-01 -.636E-01 -.246E-01   0.213E-02 -.126E-04 -.336E-04
   0.283E+02 0.163E+02 0.126E+02   -.286E+02 -.165E+02 -.131E+02   -.158E+00 -.914E-01 0.145E+00   0.120E-02 0.692E-03 0.975E-04
   -.148E-02 0.878E+02 0.586E+02   0.270E-04 -.922E+02 -.663E+02   -.531E-03 -.639E+00 0.330E+01   0.157E-02 0.333E-02 0.985E-03
   -.283E+02 0.163E+02 0.126E+02   0.286E+02 -.165E+02 -.131E+02   0.159E+00 -.911E-01 0.145E+00   -.253E-02 0.596E-03 -.222E-03
   -.618E+01 0.256E+01 0.337E+01   0.629E+01 -.230E+01 -.334E+01   0.327E-01 -.636E-01 -.239E-01   -.134E-02 0.350E-03 0.363E-04
   0.179E+02 -.331E+01 0.684E+01   -.177E+02 0.349E+01 -.646E+01   0.106E+00 -.138E+00 -.120E+00   0.195E-02 -.535E-03 -.131E-03
   0.760E+02 -.439E+02 0.586E+02   -.799E+02 0.461E+02 -.663E+02   -.554E+00 0.319E+00 0.330E+01   0.367E-02 -.302E-03 0.985E-03
   -.760E+02 -.439E+02 0.586E+02   0.799E+02 0.461E+02 -.663E+02   0.554E+00 0.320E+00 0.330E+01   -.351E-02 -.203E-02 -.417E-03
   -.179E+02 -.331E+01 0.671E+01   0.177E+02 0.349E+01 -.634E+01   -.106E+00 -.138E+00 -.109E+00   -.161E-02 -.710E-03 -.673E-03
   0.845E-04 -.608E+00 0.277E+01   -.417E-03 0.846E+00 -.275E+01   -.119E-04 -.154E+00 -.394E-01   0.458E-03 -.191E-02 -.498E-03
   0.118E+02 -.138E+02 0.685E+01   -.119E+02 0.136E+02 -.647E+01   0.172E+00 -.231E-01 -.122E+00   0.252E-02 -.256E-02 -.267E-04
   0.190E-03 -.327E+02 0.126E+02   0.966E-04 0.330E+02 -.131E+02   0.550E-03 0.183E+00 0.145E+00   -.750E-03 -.249E-02 -.222E-03
   -.118E+02 -.138E+02 0.671E+01   0.119E+02 0.136E+02 -.634E+01   -.172E+00 -.227E-01 -.109E+00   -.142E-02 -.104E-02 -.673E-03
   -.384E+01 -.222E+01 0.755E+01   0.378E+01 0.218E+01 -.763E+01   -.181E-01 -.105E-01 0.201E+00   -.199E-02 -.115E-02 -.402E-02
   0.384E+01 -.222E+01 0.266E+01   -.378E+01 0.218E+01 -.271E+01   0.195E-01 -.112E-01 0.254E-01   0.211E-02 -.195E-02 -.546E-03
   0.872E+00 -.663E+01 0.339E+01   -.115E+01 0.660E+01 -.336E+01   0.387E-01 0.602E-01 -.238E-01   0.123E-02 -.205E-02 0.123E-03
   -.873E+00 -.663E+01 0.337E+01   0.115E+01 0.660E+01 -.334E+01   -.387E-01 0.601E-01 -.239E-01   -.367E-03 -.134E-02 0.363E-04
   -.526E+00 0.304E+00 0.277E+01   0.732E+00 -.423E+00 -.275E+01   -.133E+00 0.770E-01 -.394E-01   -.142E-02 0.135E-02 -.498E-03
   0.977E-03 0.444E+01 0.266E+01   -.420E-03 -.437E+01 -.271E+01   0.570E-04 0.225E-01 0.254E-01   -.638E-03 0.280E-02 -.546E-03
   0.526E+00 0.304E+00 0.290E+01   -.732E+00 -.422E+00 -.287E+01   0.134E+00 0.771E-01 -.524E-01   0.747E-03 0.430E-03 0.289E-04
   -.214E-02 -.123E-02 -.722E+03   0.536E-02 0.306E-02 0.846E+03   0.617E-03 0.356E-03 -.638E+02   -.391E-02 -.225E-02 -.146E-01
 -----------------------------------------------------------------------------------------------
   0.133E-02 0.294E-02 0.441E+02   0.676E-13 -.398E-13 -.341E-12   0.203E-02 0.117E-02 -.441E+02   -.393E-02 -.228E-02 -.243E-01
 
 
 POSITION                                       TOTAL-FORCE (eV/Angst)
 -----------------------------------------------------------------------------------
      0.00000      0.00000      8.35995        -0.047660     -0.027516      0.009310
      2.46000      0.00000      8.35995         0.047509     -0.027561      0.009515
      4.92000      0.00000      8.35995        -0.159257      0.014086     -0.021170
      7.38000      0.00000      8.35995         0.000066     -0.207808     -0.022342
      9.84000      0.00000      8.35995         0.159078      0.014301     -0.025966
      1.23000      2.13042      8.35995        -0.000114      0.054925      0.009515
      3.69000      2.13042      8.35995         0.428869      0.247607     -0.000478
      6.15000      2.13042      8.35995         0.094416     -0.205169      0.164494
      8.61000      2.13042      8.35995        -0.094159     -0.205182      0.164860
     11.07000      2.13042      8.35995        -0.428900      0.247603      0.000090
      2.46000      4.26084      8.35995        -0.067430     -0.144964     -0.021170
      4.92000      4.26084      8.35995        -0.130474      0.184351      0.164494
      7.38000      4.26084      8.35995        -0.000141     -0.000082    -48.160037
      9.84000      4.26084      8.35995         0.128749      0.184679      0.169259
     12.30000      4.26084      8.35995         0.066813     -0.145193     -0.029975
      3.69000      6.39127      8.35995        -0.179934      0.103962     -0.022342
      6.15000      6.39127      8.35995        -0.224772      0.021047      0.164860
      8.61000      6.39127      8.35995         0.224312      0.019160      0.169259
     11.07000      6.39127      8.35995         0.180326      0.104111     -0.086444
     13.53000      6.39127      8.35995        -0.000705     -0.012581     -0.042648
      4.92000      8.52169      8.35995         0.091924      0.130615     -0.025966
      7.38000      8.52169      8.35995        -0.000020     -0.495240      0.000090
      9.84000      8.52169      8.35995        -0.092334      0.130459     -0.029975
     12.30000      8.52169      8.35995        -0.011248      0.005680     -0.042648
     14.76000      8.52169      8.35995         0.011268      0.006506      0.014222
      1.23000      0.71014      8.36012         0.000030      0.000018     -0.006009
      3.69000      0.71014      8.36012         0.097252     -0.217281      0.010403
      6.15000      0.71014      8.36012         0.194186      0.250655      0.256364
      8.61000      0.71014      8.36012        -0.194032      0.250406      0.257194
     11.07000      0.71014      8.36012        -0.097135     -0.217245      0.010217
      2.46000      2.84056      8.36012        -0.139545      0.192863      0.010403
      4.92000      2.84056      8.36012        -0.441485     -0.254891     -0.355355
      7.38000      2.84056      8.36012        -0.000345     -5.075561     -4.348546
      9.84000      2.84056      8.36012         0.441936     -0.254976     -0.354901
     12.30000      2.84056      8.36012         0.139586      0.192784      0.009480
      3.69000      4.97099      8.36012         0.314167      0.042843      0.256364
      6.15000      4.97099      8.36012        -4.395737      2.537482     -4.348546
      8.61000      4.97099      8.36012         4.396209      2.538152     -4.349271
     11.07000      4.97099      8.36012        -0.313438      0.044232      0.260657
     13.53000      4.97099      8.36012         0.000179      0.082193     -0.017990
      4.92000      7.10141      8.36012         0.119842     -0.293239      0.257194
      7.38000      7.10141      8.36012         0.000152      0.510216     -0.354901
      9.84000      7.10141      8.36012        -0.118413     -0.293561      0.260657
     12.30000      7.10141      8.35012        -0.082036     -0.047363      0.117962
     14.76000      7.10141      8.36012         0.082264     -0.047446     -0.022412
      6.15000      9.23183      8.36012        -0.236707      0.024501      0.010217
      8.61000      9.23183      8.36012         0.236749      0.024493      0.009480
     11.07000      9.23183      8.36012         0.071271     -0.040941     -0.017990
     13.53000      9.23183      8.36012         0.000042      0.094965     -0.022412
     15.99000      9.23183      8.36012        -0.071091     -0.041044     -0.022727
      7.38000      4.26084      9.36012        -0.000084     -0.000048     59.985662
 -----------------------------------------------------------------------------------
    total drift:                               -0.000574      0.001836     -0.000368


--------------------------------------------------------------------------------------------------------



  FREE ENERGIE OF THE ION-ELECTRON SYSTEM (eV)
  ---------------------------------------------------
  free  energy   TOTEN  =      -454.34009730 eV

  energy  without entropy=     -454.33998314  energy(sigma->0) =     -454.34004022
 


--------------------------------------------------------------------------------------------------------


    POTLOK:  cpu time    0.1775: real time    0.1776


--------------------------------------------------------------------------------------------------------


 stress matrix after NEB project (eV)
     15.55101      0.00209      0.00057
      0.00209     15.54860      0.00033
      0.00057      0.00033     52.18529
  FORCES: max atom, RMS    59.985662   10.896821
  FORCE total and by dimension   77.818871   59.985662
  Stress total and by dimension   56.629476   52.185292
     LOOP+:  cpu time   33.8944: real time   33.9357
    4ORBIT:  cpu time    0.0000: real time    0.0000

 total amount of memory used by VASP MPI-rank0    87233. kBytes
=======================================================================

   base      :      30000. kBytes
   nonl-proj :       7912. kBytes
   fftplans  :      26248. kBytes
   grid      :      14579. kBytes
   one-center:         21. kBytes
   wavefun   :       8473. kBytes
 
  
  
 General timing and accounting informations for this job:
 ========================================================
  
                  Total CPU time used (sec):       41.267
                            User time (sec):       38.858
                          System time (sec):        2.409
                         Elapsed time (sec):       41.476
  
                   Maximum memory used (kb):      367172.
                   Average memory used (kb):           0.
  
                          Minor page faults:        96098
                          Major page faults:            0
                 Voluntary context switches:         1107
