  51  51   0   0
  0.5138078E+02  0.1230000E-08  0.1230000E-08  0.2000000E-08  0.5000000E-15
  1.000000000000000E-004
  CAR 
                                         
      5.96913003    -33.53547375  301     -3.01679409      1.00000000
    -33.535  0.0000E+00  0.0000E+00
    -33.404  0.0000E+00  0.0000E+00
    -33.272  0.0000E+00  0.0000E+00
    -33.140  0.0000E+00  0.0000E+00
    -33.009  0.0000E+00  0.0000E+00
    -32.877  0.0000E+00  0.0000E+00
    -32.745  0.0000E+00  0.0000E+00
    -32.614  0.0000E+00  0.0000E+00
    -32.482  0.0000E+00  0.0000E+00
    -32.350  0.0000E+00  0.0000E+00
    -32.219  0.0000E+00  0.0000E+00
    -32.087  0.0000E+00  0.0000E+00
    -31.955  0.8259E-08  0.1088E-08
    -31.824  0.1345E+00  0.1772E-01
    -31.692  0.1372E+02  0.1824E+01
    -31.560  0.1337E+01  0.2000E+01
    -31.429  0.2903E-05  0.2000E+01
    -31.297  0.0000E+00  0.2000E+01
    -31.165  0.0000E+00  0.2000E+01
    -31.034  0.0000E+00  0.2000E+01
    -30.902  0.0000E+00  0.2000E+01
    -30.770  0.0000E+00  0.2000E+01
    -30.638  0.0000E+00  0.2000E+01
    -30.507  0.0000E+00  0.2000E+01
    -30.375  0.0000E+00  0.2000E+01
    -30.243  0.0000E+00  0.2000E+01
    -30.112  0.0000E+00  0.2000E+01
    -29.980  0.0000E+00  0.2000E+01
    -29.848  0.0000E+00  0.2000E+01
    -29.717  0.0000E+00  0.2000E+01
    -29.585  0.0000E+00  0.2000E+01
    -29.453  0.0000E+00  0.2000E+01
    -29.322  0.0000E+00  0.2000E+01
    -29.190  0.0000E+00  0.2000E+01
    -29.058  0.0000E+00  0.2000E+01
    -28.927  0.0000E+00  0.2000E+01
    -28.795  0.0000E+00  0.2000E+01
    -28.663  0.0000E+00  0.2000E+01
    -28.532  0.0000E+00  0.2000E+01
    -28.400  0.0000E+00  0.2000E+01
    -28.268  0.0000E+00  0.2000E+01
    -28.137  0.0000E+00  0.2000E+01
    -28.005  0.0000E+00  0.2000E+01
    -27.873  0.0000E+00  0.2000E+01
    -27.741  0.0000E+00  0.2000E+01
    -27.610  0.0000E+00  0.2000E+01
    -27.478  0.0000E+00  0.2000E+01
    -27.346  0.0000E+00  0.2000E+01
    -27.215  0.0000E+00  0.2000E+01
    -27.083  0.0000E+00  0.2000E+01
    -26.951  0.0000E+00  0.2000E+01
    -26.820  0.0000E+00  0.2000E+01
    -26.688  0.0000E+00  0.2000E+01
    -26.556  0.0000E+00  0.2000E+01
    -26.425  0.0000E+00  0.2000E+01
    -26.293  0.0000E+00  0.2000E+01
    -26.161  0.0000E+00  0.2000E+01
    -26.030  0.0000E+00  0.2000E+01
    -25.898  0.0000E+00  0.2000E+01
    -25.766  0.0000E+00  0.2000E+01
    -25.635  0.0000E+00  0.2000E+01
    -25.503  0.0000E+00  0.2000E+01
    -25.371  0.0000E+00  0.2000E+01
    -25.240  0.0000E+00  0.2000E+01
    -25.108  0.0000E+00  0.2000E+01
    -24.976  0.0000E+00  0.2000E+01
    -24.844  0.0000E+00  0.2000E+01
    -24.713  0.0000E+00  0.2000E+01
    -24.581  0.0000E+00  0.2000E+01
    -24.449  0.0000E+00  0.2000E+01
    -24.318  0.0000E+00  0.2000E+01
    -24.186  0.0000E+00  0.2000E+01
    -24.054  0.0000E+00  0.2000E+01
    -23.923  0.0000E+00  0.2000E+01
    -23.791  0.0000E+00  0.2000E+01
    -23.659  0.0000E+00  0.2000E+01
    -23.528  0.0000E+00  0.2000E+01
    -23.396  0.0000E+00  0.2000E+01
    -23.264  0.0000E+00  0.2000E+01
    -23.133  0.0000E+00  0.2000E+01
    -23.001  0.0000E+00  0.2000E+01
    -22.869  0.0000E+00  0.2000E+01
    -22.738  0.0000E+00  0.2000E+01
    -22.606  0.0000E+00  0.2000E+01
    -22.474  0.7996E-08  0.2000E+01
    -22.343  0.3709E-01  0.2005E+01
    -22.211  0.4326E+01  0.2575E+01
    -22.079  0.9292E+01  0.3798E+01
    -21.947  0.4886E+01  0.4441E+01
    -21.816  0.1062E+02  0.5840E+01
    -21.684  0.5486E+01  0.6562E+01
    -21.552  0.7819E+01  0.7592E+01
    -21.421  0.1257E+02  0.9247E+01
    -21.289  0.5713E+01  0.9999E+01
    -21.157  0.3607E+01  0.1047E+02
    -21.026  0.9229E+01  0.1169E+02
    -20.894  0.1071E+02  0.1310E+02
    -20.762  0.1018E+02  0.1444E+02
    -20.631  0.8436E+01  0.1555E+02
    -20.499  0.1860E+00  0.1558E+02
    -20.367  0.1302E+02  0.1729E+02
    -20.236  0.4041E+01  0.1782E+02
    -20.104  0.1856E+02  0.2027E+02
    -19.972  0.1352E+01  0.2045E+02
    -19.841  0.3472E+01  0.2090E+02
    -19.709  0.1370E+02  0.2271E+02
    -19.577  0.8671E+01  0.2385E+02
    -19.445  0.6199E+01  0.2467E+02
    -19.314  0.6784E+01  0.2556E+02
    -19.182  0.1406E+02  0.2741E+02
    -19.050  0.7374E+01  0.2838E+02
    -18.919  0.4869E+01  0.2902E+02
    -18.787  0.5270E+01  0.2972E+02
    -18.655  0.5005E+01  0.3038E+02
    -18.524  0.1406E+02  0.3223E+02
    -18.392  0.1133E+02  0.3372E+02
    -18.260  0.8829E+01  0.3488E+02
    -18.129  0.4571E+01  0.3548E+02
    -17.997  0.1553E+02  0.3753E+02
    -17.865  0.4753E+01  0.3815E+02
    -17.734  0.3786E+01  0.3865E+02
    -17.602  0.5589E+01  0.3939E+02
    -17.470  0.1589E+02  0.4148E+02
    -17.339  0.4198E+01  0.4203E+02
    -17.207  0.2144E+02  0.4486E+02
    -17.075  0.6814E+01  0.4575E+02
    -16.944  0.3562E+01  0.4622E+02
    -16.812  0.8755E+01  0.4737E+02
    -16.680  0.4180E+01  0.4793E+02
    -16.548  0.8923E+01  0.4910E+02
    -16.417  0.8792E+01  0.5026E+02
    -16.285  0.3048E+01  0.5066E+02
    -16.153  0.9238E+01  0.5188E+02
    -16.022  0.5759E+01  0.5263E+02
    -15.890  0.1317E+02  0.5437E+02
    -15.758  0.1205E+02  0.5595E+02
    -15.627  0.2070E+01  0.5623E+02
    -15.495  0.4156E+01  0.5677E+02
    -15.363  0.2892E+01  0.5716E+02
    -15.232  0.1012E+02  0.5849E+02
    -15.100  0.2189E+02  0.6137E+02
    -14.968  0.4917E+01  0.6202E+02
    -14.837  0.1140E+02  0.6352E+02
    -14.705  0.1054E+02  0.6491E+02
    -14.573  0.6416E+01  0.6575E+02
    -14.442  0.1531E+02  0.6777E+02
    -14.310  0.5136E+01  0.6844E+02
    -14.178  0.1012E+01  0.6858E+02
    -14.047  0.4081E+01  0.6912E+02
    -13.915  0.9725E+01  0.7040E+02
    -13.783  0.1634E+02  0.7255E+02
    -13.651  0.1858E+02  0.7499E+02
    -13.520  0.1735E+01  0.7522E+02
    -13.388  0.2521E+01  0.7556E+02
    -13.256  0.4529E+00  0.7561E+02
    -13.125  0.1120E+02  0.7709E+02
    -12.993  0.1369E+02  0.7889E+02
    -12.861  0.2058E+02  0.8160E+02
    -12.730  0.1336E+01  0.8178E+02
    -12.598  0.4645E+01  0.8239E+02
    -12.466  0.1762E+02  0.8471E+02
    -12.335  0.1093E+02  0.8615E+02
    -12.203  0.3694E+01  0.8664E+02
    -12.071  0.2977E+01  0.8703E+02
    -11.940  0.1233E+02  0.8865E+02
    -11.808  0.3488E+01  0.8911E+02
    -11.676  0.1558E+02  0.9116E+02
    -11.545  0.1823E+02  0.9356E+02
    -11.413  0.1342E+02  0.9533E+02
    -11.281  0.8517E+01  0.9645E+02
    -11.150  0.5627E+01  0.9719E+02
    -11.018  0.7847E+01  0.9822E+02
    -10.886  0.1259E+02  0.9988E+02
    -10.754  0.1731E+02  0.1022E+03
    -10.623  0.1799E+01  0.1024E+03
    -10.491  0.2043E+02  0.1051E+03
    -10.359  0.4176E+01  0.1056E+03
    -10.228  0.2432E+02  0.1088E+03
    -10.096  0.2557E+02  0.1122E+03
     -9.964  0.1853E+02  0.1146E+03
     -9.833  0.1436E+02  0.1165E+03
     -9.701  0.1760E+02  0.1189E+03
     -9.569  0.2699E+02  0.1224E+03
     -9.438  0.2154E+02  0.1252E+03
     -9.306  0.2713E+02  0.1288E+03
     -9.174  0.2366E+02  0.1319E+03
     -9.043  0.2841E+02  0.1357E+03
     -8.911  0.2023E+02  0.1383E+03
     -8.779  0.1790E+02  0.1407E+03
     -8.648  0.2284E+02  0.1437E+03
     -8.516  0.1777E+02  0.1460E+03
     -8.384  0.1616E+02  0.1482E+03
     -8.253  0.1552E+02  0.1502E+03
     -8.121  0.1603E+02  0.1523E+03
     -7.989  0.2828E+02  0.1561E+03
     -7.857  0.1652E+02  0.1582E+03
     -7.726  0.1670E+02  0.1604E+03
     -7.594  0.7888E+01  0.1615E+03
     -7.462  0.2394E+01  0.1618E+03
     -7.331  0.1694E+02  0.1640E+03
     -7.199  0.3250E+02  0.1683E+03
     -7.067  0.1616E+02  0.1704E+03
     -6.936  0.4148E+01  0.1710E+03
     -6.804  0.1949E+02  0.1735E+03
     -6.672  0.1231E+02  0.1752E+03
     -6.541  0.1629E+02  0.1773E+03
     -6.409  0.7292E+01  0.1783E+03
     -6.277  0.1227E+02  0.1799E+03
     -6.146  0.1540E+02  0.1819E+03
     -6.014  0.1383E+02  0.1837E+03
     -5.882  0.1994E+02  0.1863E+03
     -5.751  0.7878E+01  0.1874E+03
     -5.619  0.1379E+02  0.1892E+03
     -5.487  0.3344E+01  0.1896E+03
     -5.356  0.7662E+01  0.1907E+03
     -5.224  0.8900E+01  0.1918E+03
     -5.092  0.1154E+02  0.1933E+03
     -4.960  0.1803E+02  0.1957E+03
     -4.829  0.1572E+02  0.1978E+03
     -4.697  0.3204E+01  0.1982E+03
     -4.565  0.1022E+00  0.1982E+03
     -4.434  0.2554E-04  0.1982E+03
     -4.302  0.2644E+01  0.1986E+03
     -4.170  0.1759E+02  0.2009E+03
     -4.039  0.5080E+01  0.2016E+03
     -3.907  0.9804E-03  0.2016E+03
     -3.775  0.3861E+00  0.2016E+03
     -3.644  0.2969E+01  0.2020E+03
     -3.512  0.2572E+00  0.2020E+03
     -3.380  0.4190E+01  0.2026E+03
     -3.249  0.1229E+02  0.2042E+03
     -3.117  0.1069E+02  0.2056E+03
     -2.985  0.3008E+01  0.2060E+03
     -2.854  0.2346E+01  0.2063E+03
     -2.722  0.9313E+01  0.2075E+03
     -2.590  0.1117E+00  0.2076E+03
     -2.459  0.6793E-01  0.2076E+03
     -2.327  0.3153E+01  0.2080E+03
     -2.195  0.2761E+01  0.2083E+03
     -2.063  0.7678E+00  0.2084E+03
     -1.932  0.1310E-04  0.2084E+03
     -1.800  0.1307E-07  0.2084E+03
     -1.668  0.1248E+00  0.2085E+03
     -1.537  0.9347E+01  0.2097E+03
     -1.405  0.1249E+02  0.2113E+03
     -1.273  0.3353E+01  0.2118E+03
     -1.142  0.1476E-03  0.2118E+03
     -1.010  0.1083E+01  0.2119E+03
     -0.878  0.1063E+02  0.2133E+03
     -0.747  0.2335E+02  0.2164E+03
     -0.615  0.1826E+02  0.2188E+03
     -0.483  0.5438E+01  0.2195E+03
     -0.352  0.3316E+00  0.2196E+03
     -0.220  0.4367E+01  0.2201E+03
     -0.088  0.1122E+02  0.2216E+03
      0.043  0.1055E+02  0.2230E+03
      0.175  0.9409E+00  0.2231E+03
      0.307  0.1569E+02  0.2252E+03
      0.438  0.7918E+01  0.2262E+03
      0.570  0.3417E+01  0.2267E+03
      0.702  0.1045E+02  0.2281E+03
      0.834  0.1739E+02  0.2303E+03
      0.965  0.6151E+01  0.2312E+03
      1.097  0.1073E+02  0.2326E+03
      1.229  0.1529E+02  0.2346E+03
      1.360  0.8045E+01  0.2356E+03
      1.492  0.1501E+02  0.2376E+03
      1.624  0.2289E+02  0.2406E+03
      1.755  0.1560E+02  0.2427E+03
      1.887  0.2754E+02  0.2463E+03
      2.019  0.8528E+01  0.2474E+03
      2.150  0.1568E+02  0.2495E+03
      2.282  0.2605E+02  0.2529E+03
      2.414  0.2904E+02  0.2568E+03
      2.545  0.7818E+01  0.2578E+03
      2.677  0.6170E+01  0.2586E+03
      2.809  0.8871E+01  0.2598E+03
      2.940  0.5359E+01  0.2605E+03
      3.072  0.9148E+01  0.2617E+03
      3.204  0.2726E+01  0.2620E+03
      3.335  0.4739E+01  0.2627E+03
      3.467  0.3645E-01  0.2627E+03
      3.599  0.2899E+01  0.2630E+03
      3.731  0.3849E+01  0.2636E+03
      3.862  0.2160E-02  0.2636E+03
      3.994  0.6406E-06  0.2636E+03
      4.126  0.2964E+00  0.2636E+03
      4.257  0.3049E+01  0.2640E+03
      4.389  0.3001E-01  0.2640E+03
      4.521  0.1850E-08  0.2640E+03
      4.652  0.0000E+00  0.2640E+03
      4.784  0.0000E+00  0.2640E+03
      4.916  0.0000E+00  0.2640E+03
      5.047  0.0000E+00  0.2640E+03
      5.179  0.0000E+00  0.2640E+03
      5.311  0.0000E+00  0.2640E+03
      5.442  0.0000E+00  0.2640E+03
      5.574  0.0000E+00  0.2640E+03
      5.706  0.0000E+00  0.2640E+03
      5.837  0.0000E+00  0.2640E+03
      5.969  0.0000E+00  0.2640E+03
