 running on   48 total cores
 distrk:  each k-point on   48 cores,    1 groups
 distr:  one band on    8 cores,    6 groups
 using from now: INCAR     
 vasp.5.4.4.18Apr17-6-g9f103f2a35 (build Aug 13 2022 23:40:43) complex          
  
 POSCAR found type information on POSCAR  C  O 
 POSCAR found :  2 types and      51 ions
 scaLAPACK will be used

 ----------------------------------------------------------------------------- 
|                                                                             |
|  ADVICE TO THIS USER RUNNING 'VASP/VAMP'   (HEAR YOUR MASTER'S VOICE ...):  |
|                                                                             |
|      You have a (more or less) 'large supercell' and for larger cells       |
|      it might be more efficient to use real space projection opertators     |
|      So try LREAL= Auto  in the INCAR   file.                               |
|      Mind:          For very  accurate calculation you might also keep the  |
|      reciprocal projection scheme          (i.e. LREAL=.FALSE.)             |
|                                                                             |
 ----------------------------------------------------------------------------- 

 LDA part: xc-table for Pade appr. of Perdew
 POSCAR found type information on POSCAR  C  O 
 POSCAR found :  2 types and      51 ions
 found WAVECAR, reading the header
  number of k-points has changed, file:     3 present:     5
  trying to continue reading WAVECAR, but it might fail
 POSCAR, INCAR and KPOINTS ok, starting setup
 FFT: planning ...
 reading WAVECAR
 the WAVECAR file was read successfully
 charge-density read from file: 1.00000000000000                        
 entering main loop
       N       E                     dE             d eps       ncg     rms          rms(c)
DAV:   1    -0.453294942869E+03   -0.45329E+03   -0.28416E+02  1356   0.217E+01    0.499E-01
RMM:   2    -0.454282751032E+03   -0.98781E+00   -0.99025E+00  1418   0.566E+00    0.209E-01
RMM:   3    -0.454334997286E+03   -0.52246E-01   -0.58546E-01  1581   0.110E+00    0.155E-01
RMM:   4    -0.454338849902E+03   -0.38526E-02   -0.40472E-02  1573   0.310E-01    0.153E-01
RMM:   5    -0.454338953528E+03   -0.10363E-03   -0.31999E-03  1511   0.912E-02    0.611E-02
RMM:   6    -0.454338979967E+03   -0.26440E-04   -0.49591E-04  1532   0.461E-02    0.157E-02
RMM:   7    -0.454338987036E+03   -0.70684E-05   -0.22167E-05  1038   0.111E-02
   1 F= -.45433899E+03 E0= -.45433893E+03  d E =-.116222E-03
