  51  51   0   0
  0.5138078E+02  0.1230000E-08  0.1230000E-08  0.2000000E-08  0.5000000E-15
  1.000000000000000E-004
  CAR 
                                         
      5.96789645    -33.53421702  301     -3.01617517      1.00000000
    -33.534  0.0000E+00  0.0000E+00
    -33.403  0.0000E+00  0.0000E+00
    -33.271  0.0000E+00  0.0000E+00
    -33.139  0.0000E+00  0.0000E+00
    -33.008  0.0000E+00  0.0000E+00
    -32.876  0.0000E+00  0.0000E+00
    -32.744  0.0000E+00  0.0000E+00
    -32.613  0.0000E+00  0.0000E+00
    -32.481  0.0000E+00  0.0000E+00
    -32.349  0.0000E+00  0.0000E+00
    -32.217  0.0000E+00  0.0000E+00
    -32.086  0.0000E+00  0.0000E+00
    -31.954  0.8279E-08  0.1090E-08
    -31.822  0.1346E+00  0.1772E-01
    -31.691  0.1372E+02  0.1824E+01
    -31.559  0.1337E+01  0.2000E+01
    -31.427  0.2908E-05  0.2000E+01
    -31.296  0.0000E+00  0.2000E+01
    -31.164  0.0000E+00  0.2000E+01
    -31.032  0.0000E+00  0.2000E+01
    -30.901  0.0000E+00  0.2000E+01
    -30.769  0.0000E+00  0.2000E+01
    -30.637  0.0000E+00  0.2000E+01
    -30.506  0.0000E+00  0.2000E+01
    -30.374  0.0000E+00  0.2000E+01
    -30.242  0.0000E+00  0.2000E+01
    -30.111  0.0000E+00  0.2000E+01
    -29.979  0.0000E+00  0.2000E+01
    -29.847  0.0000E+00  0.2000E+01
    -29.716  0.0000E+00  0.2000E+01
    -29.584  0.0000E+00  0.2000E+01
    -29.452  0.0000E+00  0.2000E+01
    -29.321  0.0000E+00  0.2000E+01
    -29.189  0.0000E+00  0.2000E+01
    -29.057  0.0000E+00  0.2000E+01
    -28.926  0.0000E+00  0.2000E+01
    -28.794  0.0000E+00  0.2000E+01
    -28.662  0.0000E+00  0.2000E+01
    -28.531  0.0000E+00  0.2000E+01
    -28.399  0.0000E+00  0.2000E+01
    -28.267  0.0000E+00  0.2000E+01
    -28.136  0.0000E+00  0.2000E+01
    -28.004  0.0000E+00  0.2000E+01
    -27.872  0.0000E+00  0.2000E+01
    -27.741  0.0000E+00  0.2000E+01
    -27.609  0.0000E+00  0.2000E+01
    -27.477  0.0000E+00  0.2000E+01
    -27.346  0.0000E+00  0.2000E+01
    -27.214  0.0000E+00  0.2000E+01
    -27.082  0.0000E+00  0.2000E+01
    -26.951  0.0000E+00  0.2000E+01
    -26.819  0.0000E+00  0.2000E+01
    -26.687  0.0000E+00  0.2000E+01
    -26.556  0.0000E+00  0.2000E+01
    -26.424  0.0000E+00  0.2000E+01
    -26.292  0.0000E+00  0.2000E+01
    -26.160  0.0000E+00  0.2000E+01
    -26.029  0.0000E+00  0.2000E+01
    -25.897  0.0000E+00  0.2000E+01
    -25.765  0.0000E+00  0.2000E+01
    -25.634  0.0000E+00  0.2000E+01
    -25.502  0.0000E+00  0.2000E+01
    -25.370  0.0000E+00  0.2000E+01
    -25.239  0.0000E+00  0.2000E+01
    -25.107  0.0000E+00  0.2000E+01
    -24.975  0.0000E+00  0.2000E+01
    -24.844  0.0000E+00  0.2000E+01
    -24.712  0.0000E+00  0.2000E+01
    -24.580  0.0000E+00  0.2000E+01
    -24.449  0.0000E+00  0.2000E+01
    -24.317  0.0000E+00  0.2000E+01
    -24.185  0.0000E+00  0.2000E+01
    -24.054  0.0000E+00  0.2000E+01
    -23.922  0.0000E+00  0.2000E+01
    -23.790  0.0000E+00  0.2000E+01
    -23.659  0.0000E+00  0.2000E+01
    -23.527  0.0000E+00  0.2000E+01
    -23.395  0.0000E+00  0.2000E+01
    -23.264  0.0000E+00  0.2000E+01
    -23.132  0.0000E+00  0.2000E+01
    -23.000  0.0000E+00  0.2000E+01
    -22.869  0.0000E+00  0.2000E+01
    -22.737  0.0000E+00  0.2000E+01
    -22.605  0.0000E+00  0.2000E+01
    -22.474  0.7951E-08  0.2000E+01
    -22.342  0.3699E-01  0.2005E+01
    -22.210  0.4300E+01  0.2571E+01
    -22.079  0.9261E+01  0.3791E+01
    -21.947  0.4965E+01  0.4444E+01
    -21.815  0.1068E+02  0.5851E+01
    -21.684  0.5559E+01  0.6583E+01
    -21.552  0.7688E+01  0.7595E+01
    -21.420  0.1255E+02  0.9247E+01
    -21.289  0.5709E+01  0.9999E+01
    -21.157  0.3600E+01  0.1047E+02
    -21.025  0.9416E+01  0.1171E+02
    -20.894  0.1040E+02  0.1308E+02
    -20.762  0.1031E+02  0.1444E+02
    -20.630  0.8441E+01  0.1555E+02
    -20.499  0.2030E+00  0.1558E+02
    -20.367  0.1311E+02  0.1730E+02
    -20.235  0.3929E+01  0.1782E+02
    -20.103  0.1861E+02  0.2027E+02
    -19.972  0.1322E+01  0.2045E+02
    -19.840  0.3462E+01  0.2090E+02
    -19.708  0.1389E+02  0.2273E+02
    -19.577  0.8608E+01  0.2386E+02
    -19.445  0.6089E+01  0.2467E+02
    -19.313  0.6520E+01  0.2552E+02
    -19.182  0.1424E+02  0.2740E+02
    -19.050  0.7475E+01  0.2838E+02
    -18.918  0.4976E+01  0.2904E+02
    -18.787  0.5130E+01  0.2971E+02
    -18.655  0.5110E+01  0.3039E+02
    -18.523  0.1401E+02  0.3223E+02
    -18.392  0.1133E+02  0.3372E+02
    -18.260  0.8768E+01  0.3488E+02
    -18.128  0.4703E+01  0.3550E+02
    -17.997  0.1539E+02  0.3752E+02
    -17.865  0.4829E+01  0.3816E+02
    -17.733  0.3761E+01  0.3865E+02
    -17.602  0.5488E+01  0.3938E+02
    -17.470  0.1612E+02  0.4150E+02
    -17.338  0.3955E+01  0.4202E+02
    -17.207  0.2157E+02  0.4486E+02
    -17.075  0.6713E+01  0.4574E+02
    -16.943  0.3630E+01  0.4622E+02
    -16.812  0.8813E+01  0.4738E+02
    -16.680  0.4124E+01  0.4793E+02
    -16.548  0.8916E+01  0.4910E+02
    -16.417  0.8816E+01  0.5026E+02
    -16.285  0.3027E+01  0.5066E+02
    -16.153  0.8978E+01  0.5184E+02
    -16.022  0.5958E+01  0.5263E+02
    -15.890  0.1321E+02  0.5437E+02
    -15.758  0.1207E+02  0.5596E+02
    -15.627  0.2164E+01  0.5624E+02
    -15.495  0.4190E+01  0.5679E+02
    -15.363  0.2774E+01  0.5716E+02
    -15.232  0.1011E+02  0.5849E+02
    -15.100  0.2192E+02  0.6137E+02
    -14.968  0.4813E+01  0.6201E+02
    -14.837  0.1143E+02  0.6351E+02
    -14.705  0.1058E+02  0.6491E+02
    -14.573  0.6376E+01  0.6575E+02
    -14.442  0.1556E+02  0.6780E+02
    -14.310  0.4928E+01  0.6844E+02
    -14.178  0.1084E+01  0.6859E+02
    -14.047  0.4019E+01  0.6912E+02
    -13.915  0.9681E+01  0.7039E+02
    -13.783  0.1666E+02  0.7259E+02
    -13.651  0.1832E+02  0.7500E+02
    -13.520  0.1574E+01  0.7520E+02
    -13.388  0.2657E+01  0.7555E+02
    -13.256  0.4688E+00  0.7562E+02
    -13.125  0.1119E+02  0.7709E+02
    -12.993  0.1375E+02  0.7890E+02
    -12.861  0.2026E+02  0.8157E+02
    -12.730  0.1588E+01  0.8178E+02
    -12.598  0.4533E+01  0.8237E+02
    -12.466  0.1776E+02  0.8471E+02
    -12.335  0.1090E+02  0.8615E+02
    -12.203  0.3669E+01  0.8663E+02
    -12.071  0.2961E+01  0.8702E+02
    -11.940  0.1238E+02  0.8865E+02
    -11.808  0.3440E+01  0.8910E+02
    -11.676  0.1569E+02  0.9117E+02
    -11.545  0.1800E+02  0.9354E+02
    -11.413  0.1364E+02  0.9534E+02
    -11.281  0.8258E+01  0.9642E+02
    -11.150  0.5639E+01  0.9717E+02
    -11.018  0.8046E+01  0.9822E+02
    -10.886  0.1270E+02  0.9990E+02
    -10.755  0.1717E+02  0.1022E+03
    -10.623  0.1758E+01  0.1024E+03
    -10.491  0.2071E+02  0.1051E+03
    -10.360  0.3931E+01  0.1056E+03
    -10.228  0.2394E+02  0.1088E+03
    -10.096  0.2576E+02  0.1122E+03
     -9.965  0.1878E+02  0.1147E+03
     -9.833  0.1462E+02  0.1166E+03
     -9.701  0.1747E+02  0.1189E+03
     -9.570  0.2706E+02  0.1224E+03
     -9.438  0.2132E+02  0.1252E+03
     -9.306  0.2699E+02  0.1288E+03
     -9.175  0.2380E+02  0.1319E+03
     -9.043  0.2835E+02  0.1357E+03
     -8.911  0.2015E+02  0.1383E+03
     -8.780  0.1802E+02  0.1407E+03
     -8.648  0.2266E+02  0.1437E+03
     -8.516  0.1782E+02  0.1460E+03
     -8.385  0.1629E+02  0.1482E+03
     -8.253  0.1570E+02  0.1502E+03
     -8.121  0.1541E+02  0.1523E+03
     -7.990  0.2922E+02  0.1561E+03
     -7.858  0.1593E+02  0.1582E+03
     -7.726  0.1681E+02  0.1604E+03
     -7.594  0.7906E+01  0.1615E+03
     -7.463  0.2398E+01  0.1618E+03
     -7.331  0.1698E+02  0.1640E+03
     -7.199  0.3235E+02  0.1683E+03
     -7.068  0.1629E+02  0.1704E+03
     -6.936  0.3994E+01  0.1709E+03
     -6.804  0.1966E+02  0.1735E+03
     -6.673  0.1246E+02  0.1752E+03
     -6.541  0.1614E+02  0.1773E+03
     -6.409  0.7079E+01  0.1782E+03
     -6.278  0.1229E+02  0.1799E+03
     -6.146  0.1545E+02  0.1819E+03
     -6.014  0.1394E+02  0.1837E+03
     -5.883  0.1973E+02  0.1863E+03
     -5.751  0.8135E+01  0.1874E+03
     -5.619  0.1352E+02  0.1892E+03
     -5.488  0.3584E+01  0.1896E+03
     -5.356  0.7600E+01  0.1906E+03
     -5.224  0.8921E+01  0.1918E+03
     -5.093  0.1157E+02  0.1933E+03
     -4.961  0.1790E+02  0.1957E+03
     -4.829  0.1586E+02  0.1978E+03
     -4.698  0.3204E+01  0.1982E+03
     -4.566  0.1025E+00  0.1982E+03
     -4.434  0.2408E-04  0.1982E+03
     -4.303  0.2631E+01  0.1986E+03
     -4.171  0.1736E+02  0.2009E+03
     -4.039  0.5323E+01  0.2016E+03
     -3.908  0.1239E-02  0.2016E+03
     -3.776  0.3555E+00  0.2016E+03
     -3.644  0.2997E+01  0.2020E+03
     -3.513  0.2318E+00  0.2020E+03
     -3.381  0.4144E+01  0.2026E+03
     -3.249  0.1233E+02  0.2042E+03
     -3.118  0.1066E+02  0.2056E+03
     -2.986  0.3072E+01  0.2060E+03
     -2.854  0.2338E+01  0.2063E+03
     -2.723  0.9326E+01  0.2075E+03
     -2.591  0.1129E+00  0.2076E+03
     -2.459  0.6993E-01  0.2076E+03
     -2.328  0.3156E+01  0.2080E+03
     -2.196  0.2811E+01  0.2084E+03
     -2.064  0.7139E+00  0.2084E+03
     -1.933  0.1017E-04  0.2084E+03
     -1.801  0.1625E-07  0.2084E+03
     -1.669  0.1401E+00  0.2085E+03
     -1.538  0.9403E+01  0.2097E+03
     -1.406  0.1230E+02  0.2113E+03
     -1.274  0.3471E+01  0.2118E+03
     -1.142  0.1482E-03  0.2118E+03
     -1.011  0.9365E+00  0.2119E+03
     -0.879  0.1035E+02  0.2133E+03
     -0.747  0.2360E+02  0.2164E+03
     -0.616  0.1844E+02  0.2188E+03
     -0.484  0.5473E+01  0.2195E+03
     -0.352  0.2950E+00  0.2196E+03
     -0.221  0.4319E+01  0.2201E+03
     -0.089  0.1138E+02  0.2216E+03
      0.043  0.1041E+02  0.2230E+03
      0.174  0.9776E+00  0.2231E+03
      0.306  0.1561E+02  0.2252E+03
      0.438  0.8114E+01  0.2262E+03
      0.569  0.3090E+01  0.2267E+03
      0.701  0.1049E+02  0.2280E+03
      0.833  0.1732E+02  0.2303E+03
      0.964  0.6313E+01  0.2311E+03
      1.096  0.1074E+02  0.2326E+03
      1.228  0.1535E+02  0.2346E+03
      1.359  0.7629E+01  0.2356E+03
      1.491  0.1531E+02  0.2376E+03
      1.623  0.2303E+02  0.2406E+03
      1.754  0.1532E+02  0.2427E+03
      1.886  0.2771E+02  0.2463E+03
      2.018  0.8388E+01  0.2474E+03
      2.149  0.1581E+02  0.2495E+03
      2.281  0.2600E+02  0.2529E+03
      2.413  0.2906E+02  0.2567E+03
      2.544  0.7974E+01  0.2578E+03
      2.676  0.6283E+01  0.2586E+03
      2.808  0.8680E+01  0.2598E+03
      2.939  0.5463E+01  0.2605E+03
      3.071  0.9020E+01  0.2617E+03
      3.203  0.2790E+01  0.2620E+03
      3.334  0.4780E+01  0.2627E+03
      3.466  0.3960E-01  0.2627E+03
      3.598  0.2851E+01  0.2630E+03
      3.729  0.3897E+01  0.2636E+03
      3.861  0.2331E-02  0.2636E+03
      3.993  0.6418E-06  0.2636E+03
      4.124  0.2964E+00  0.2636E+03
      4.256  0.3049E+01  0.2640E+03
      4.388  0.3002E-01  0.2640E+03
      4.519  0.1855E-08  0.2640E+03
      4.651  0.0000E+00  0.2640E+03
      4.783  0.0000E+00  0.2640E+03
      4.915  0.0000E+00  0.2640E+03
      5.046  0.0000E+00  0.2640E+03
      5.178  0.0000E+00  0.2640E+03
      5.310  0.0000E+00  0.2640E+03
      5.441  0.0000E+00  0.2640E+03
      5.573  0.0000E+00  0.2640E+03
      5.705  0.0000E+00  0.2640E+03
      5.836  0.0000E+00  0.2640E+03
      5.968  0.0000E+00  0.2640E+03
