  51  51   0   0
  0.5138078E+02  0.1230000E-08  0.1230000E-08  0.2000000E-08  0.5000000E-15
  1.000000000000000E-004
  CAR 
                                         
      5.97095214    -33.53525919  301     -3.01686361      1.00000000
    -33.535  0.0000E+00  0.0000E+00
    -33.404  0.0000E+00  0.0000E+00
    -33.272  0.0000E+00  0.0000E+00
    -33.140  0.0000E+00  0.0000E+00
    -33.009  0.0000E+00  0.0000E+00
    -32.877  0.0000E+00  0.0000E+00
    -32.745  0.0000E+00  0.0000E+00
    -32.613  0.0000E+00  0.0000E+00
    -32.482  0.0000E+00  0.0000E+00
    -32.350  0.0000E+00  0.0000E+00
    -32.218  0.0000E+00  0.0000E+00
    -32.087  0.0000E+00  0.0000E+00
    -31.955  0.8246E-08  0.1086E-08
    -31.823  0.1345E+00  0.1771E-01
    -31.692  0.1372E+02  0.1824E+01
    -31.560  0.1337E+01  0.2000E+01
    -31.428  0.2900E-05  0.2000E+01
    -31.297  0.0000E+00  0.2000E+01
    -31.165  0.0000E+00  0.2000E+01
    -31.033  0.0000E+00  0.2000E+01
    -30.902  0.0000E+00  0.2000E+01
    -30.770  0.0000E+00  0.2000E+01
    -30.638  0.0000E+00  0.2000E+01
    -30.506  0.0000E+00  0.2000E+01
    -30.375  0.0000E+00  0.2000E+01
    -30.243  0.0000E+00  0.2000E+01
    -30.111  0.0000E+00  0.2000E+01
    -29.980  0.0000E+00  0.2000E+01
    -29.848  0.0000E+00  0.2000E+01
    -29.716  0.0000E+00  0.2000E+01
    -29.585  0.0000E+00  0.2000E+01
    -29.453  0.0000E+00  0.2000E+01
    -29.321  0.0000E+00  0.2000E+01
    -29.190  0.0000E+00  0.2000E+01
    -29.058  0.0000E+00  0.2000E+01
    -28.926  0.0000E+00  0.2000E+01
    -28.795  0.0000E+00  0.2000E+01
    -28.663  0.0000E+00  0.2000E+01
    -28.531  0.0000E+00  0.2000E+01
    -28.399  0.0000E+00  0.2000E+01
    -28.268  0.0000E+00  0.2000E+01
    -28.136  0.0000E+00  0.2000E+01
    -28.004  0.0000E+00  0.2000E+01
    -27.873  0.0000E+00  0.2000E+01
    -27.741  0.0000E+00  0.2000E+01
    -27.609  0.0000E+00  0.2000E+01
    -27.478  0.0000E+00  0.2000E+01
    -27.346  0.0000E+00  0.2000E+01
    -27.214  0.0000E+00  0.2000E+01
    -27.083  0.0000E+00  0.2000E+01
    -26.951  0.0000E+00  0.2000E+01
    -26.819  0.0000E+00  0.2000E+01
    -26.688  0.0000E+00  0.2000E+01
    -26.556  0.0000E+00  0.2000E+01
    -26.424  0.0000E+00  0.2000E+01
    -26.292  0.0000E+00  0.2000E+01
    -26.161  0.0000E+00  0.2000E+01
    -26.029  0.0000E+00  0.2000E+01
    -25.897  0.0000E+00  0.2000E+01
    -25.766  0.0000E+00  0.2000E+01
    -25.634  0.0000E+00  0.2000E+01
    -25.502  0.0000E+00  0.2000E+01
    -25.371  0.0000E+00  0.2000E+01
    -25.239  0.0000E+00  0.2000E+01
    -25.107  0.0000E+00  0.2000E+01
    -24.976  0.0000E+00  0.2000E+01
    -24.844  0.0000E+00  0.2000E+01
    -24.712  0.0000E+00  0.2000E+01
    -24.581  0.0000E+00  0.2000E+01
    -24.449  0.0000E+00  0.2000E+01
    -24.317  0.0000E+00  0.2000E+01
    -24.185  0.0000E+00  0.2000E+01
    -24.054  0.0000E+00  0.2000E+01
    -23.922  0.0000E+00  0.2000E+01
    -23.790  0.0000E+00  0.2000E+01
    -23.659  0.0000E+00  0.2000E+01
    -23.527  0.0000E+00  0.2000E+01
    -23.395  0.0000E+00  0.2000E+01
    -23.264  0.0000E+00  0.2000E+01
    -23.132  0.0000E+00  0.2000E+01
    -23.000  0.0000E+00  0.2000E+01
    -22.869  0.0000E+00  0.2000E+01
    -22.737  0.0000E+00  0.2000E+01
    -22.605  0.0000E+00  0.2000E+01
    -22.474  0.8354E-08  0.2000E+01
    -22.342  0.3777E-01  0.2005E+01
    -22.210  0.4340E+01  0.2576E+01
    -22.078  0.9257E+01  0.3795E+01
    -21.947  0.4924E+01  0.4444E+01
    -21.815  0.1067E+02  0.5849E+01
    -21.683  0.5503E+01  0.6573E+01
    -21.552  0.7759E+01  0.7595E+01
    -21.420  0.1266E+02  0.9262E+01
    -21.288  0.5599E+01  0.9999E+01
    -21.157  0.3700E+01  0.1049E+02
    -21.025  0.9190E+01  0.1170E+02
    -20.893  0.1074E+02  0.1311E+02
    -20.762  0.1010E+02  0.1444E+02
    -20.630  0.8426E+01  0.1555E+02
    -20.498  0.1916E+00  0.1558E+02
    -20.367  0.1308E+02  0.1730E+02
    -20.235  0.4000E+01  0.1783E+02
    -20.103  0.1856E+02  0.2027E+02
    -19.971  0.1338E+01  0.2045E+02
    -19.840  0.3529E+01  0.2091E+02
    -19.708  0.1384E+02  0.2273E+02
    -19.576  0.8538E+01  0.2386E+02
    -19.445  0.6132E+01  0.2467E+02
    -19.313  0.6772E+01  0.2556E+02
    -19.181  0.1410E+02  0.2741E+02
    -19.050  0.7456E+01  0.2840E+02
    -18.918  0.4817E+01  0.2903E+02
    -18.786  0.5236E+01  0.2972E+02
    -18.655  0.5123E+01  0.3039E+02
    -18.523  0.1396E+02  0.3223E+02
    -18.391  0.1133E+02  0.3372E+02
    -18.260  0.8769E+01  0.3488E+02
    -18.128  0.4700E+01  0.3550E+02
    -17.996  0.1542E+02  0.3753E+02
    -17.864  0.4787E+01  0.3816E+02
    -17.733  0.3763E+01  0.3865E+02
    -17.601  0.5689E+01  0.3940E+02
    -17.469  0.1586E+02  0.4149E+02
    -17.338  0.4117E+01  0.4204E+02
    -17.206  0.2145E+02  0.4486E+02
    -17.074  0.6825E+01  0.4576E+02
    -16.943  0.3525E+01  0.4622E+02
    -16.811  0.8826E+01  0.4739E+02
    -16.679  0.4079E+01  0.4792E+02
    -16.548  0.8899E+01  0.4909E+02
    -16.416  0.8872E+01  0.5026E+02
    -16.284  0.3073E+01  0.5067E+02
    -16.153  0.9235E+01  0.5188E+02
    -16.021  0.5853E+01  0.5265E+02
    -15.889  0.1308E+02  0.5438E+02
    -15.757  0.1202E+02  0.5596E+02
    -15.626  0.2107E+01  0.5624E+02
    -15.494  0.4200E+01  0.5679E+02
    -15.362  0.2788E+01  0.5716E+02
    -15.231  0.1014E+02  0.5849E+02
    -15.099  0.2200E+02  0.6139E+02
    -14.967  0.4803E+01  0.6202E+02
    -14.836  0.1144E+02  0.6353E+02
    -14.704  0.1049E+02  0.6491E+02
    -14.572  0.6413E+01  0.6575E+02
    -14.441  0.1557E+02  0.6780E+02
    -14.309  0.4864E+01  0.6844E+02
    -14.177  0.1010E+01  0.6858E+02
    -14.046  0.4092E+01  0.6912E+02
    -13.914  0.9914E+01  0.7042E+02
    -13.782  0.1664E+02  0.7261E+02
    -13.650  0.1811E+02  0.7500E+02
    -13.519  0.1694E+01  0.7522E+02
    -13.387  0.2534E+01  0.7556E+02
    -13.255  0.4694E+00  0.7562E+02
    -13.124  0.1113E+02  0.7708E+02
    -12.992  0.1387E+02  0.7891E+02
    -12.860  0.2050E+02  0.8161E+02
    -12.729  0.1277E+01  0.8178E+02
    -12.597  0.4634E+01  0.8239E+02
    -12.465  0.1772E+02  0.8472E+02
    -12.334  0.1087E+02  0.8615E+02
    -12.202  0.3661E+01  0.8664E+02
    -12.070  0.3054E+01  0.8704E+02
    -11.939  0.1227E+02  0.8865E+02
    -11.807  0.3518E+01  0.8912E+02
    -11.675  0.1590E+02  0.9121E+02
    -11.543  0.1785E+02  0.9356E+02
    -11.412  0.1353E+02  0.9534E+02
    -11.280  0.8422E+01  0.9645E+02
    -11.148  0.5571E+01  0.9719E+02
    -11.017  0.7891E+01  0.9823E+02
    -10.885  0.1276E+02  0.9991E+02
    -10.753  0.1715E+02  0.1022E+03
    -10.622  0.1967E+01  0.1024E+03
    -10.490  0.2053E+02  0.1051E+03
    -10.358  0.3922E+01  0.1056E+03
    -10.227  0.2434E+02  0.1088E+03
    -10.095  0.2554E+02  0.1122E+03
     -9.963  0.1853E+02  0.1147E+03
     -9.832  0.1467E+02  0.1166E+03
     -9.700  0.1740E+02  0.1189E+03
     -9.568  0.2752E+02  0.1225E+03
     -9.436  0.2099E+02  0.1253E+03
     -9.305  0.2725E+02  0.1289E+03
     -9.173  0.2350E+02  0.1319E+03
     -9.041  0.2864E+02  0.1357E+03
     -8.910  0.2019E+02  0.1384E+03
     -8.778  0.1766E+02  0.1407E+03
     -8.646  0.2311E+02  0.1437E+03
     -8.515  0.1762E+02  0.1461E+03
     -8.383  0.1637E+02  0.1482E+03
     -8.251  0.1534E+02  0.1502E+03
     -8.120  0.1586E+02  0.1523E+03
     -7.988  0.2877E+02  0.1561E+03
     -7.856  0.1620E+02  0.1583E+03
     -7.725  0.1652E+02  0.1604E+03
     -7.593  0.7962E+01  0.1615E+03
     -7.461  0.2315E+01  0.1618E+03
     -7.329  0.1720E+02  0.1640E+03
     -7.198  0.3249E+02  0.1683E+03
     -7.066  0.1594E+02  0.1704E+03
     -6.934  0.4293E+01  0.1710E+03
     -6.803  0.1937E+02  0.1735E+03
     -6.671  0.1267E+02  0.1752E+03
     -6.539  0.1600E+02  0.1773E+03
     -6.408  0.7114E+01  0.1783E+03
     -6.276  0.1247E+02  0.1799E+03
     -6.144  0.1535E+02  0.1819E+03
     -6.013  0.1379E+02  0.1837E+03
     -5.881  0.2007E+02  0.1864E+03
     -5.749  0.7829E+01  0.1874E+03
     -5.618  0.1373E+02  0.1892E+03
     -5.486  0.3328E+01  0.1897E+03
     -5.354  0.7805E+01  0.1907E+03
     -5.222  0.8721E+01  0.1918E+03
     -5.091  0.1172E+02  0.1934E+03
     -4.959  0.1816E+02  0.1958E+03
     -4.827  0.1540E+02  0.1978E+03
     -4.696  0.3199E+01  0.1982E+03
     -4.564  0.9345E-01  0.1982E+03
     -4.432  0.2951E-04  0.1982E+03
     -4.301  0.2813E+01  0.1986E+03
     -4.169  0.1736E+02  0.2009E+03
     -4.037  0.5143E+01  0.2016E+03
     -3.906  0.1037E-02  0.2016E+03
     -3.774  0.4011E+00  0.2016E+03
     -3.642  0.2955E+01  0.2020E+03
     -3.511  0.2514E+00  0.2020E+03
     -3.379  0.4255E+01  0.2026E+03
     -3.247  0.1232E+02  0.2042E+03
     -3.115  0.1076E+02  0.2056E+03
     -2.984  0.2859E+01  0.2060E+03
     -2.852  0.2445E+01  0.2063E+03
     -2.720  0.9227E+01  0.2075E+03
     -2.589  0.9386E-01  0.2076E+03
     -2.457  0.8026E-01  0.2076E+03
     -2.325  0.3165E+01  0.2080E+03
     -2.194  0.2845E+01  0.2084E+03
     -2.062  0.6605E+00  0.2084E+03
     -1.930  0.7781E-05  0.2084E+03
     -1.799  0.2222E-07  0.2084E+03
     -1.667  0.1621E+00  0.2085E+03
     -1.535  0.9469E+01  0.2097E+03
     -1.404  0.1247E+02  0.2114E+03
     -1.272  0.3206E+01  0.2118E+03
     -1.140  0.1331E-03  0.2118E+03
     -1.008  0.1092E+01  0.2119E+03
     -0.877  0.1066E+02  0.2133E+03
     -0.745  0.2328E+02  0.2164E+03
     -0.613  0.1839E+02  0.2188E+03
     -0.482  0.5386E+01  0.2195E+03
     -0.350  0.2804E+00  0.2196E+03
     -0.218  0.4477E+01  0.2201E+03
     -0.087  0.1129E+02  0.2216E+03
      0.045  0.1046E+02  0.2230E+03
      0.177  0.8813E+00  0.2231E+03
      0.308  0.1600E+02  0.2252E+03
      0.440  0.7725E+01  0.2263E+03
      0.572  0.3212E+01  0.2267E+03
      0.703  0.1081E+02  0.2281E+03
      0.835  0.1709E+02  0.2304E+03
      0.967  0.6213E+01  0.2312E+03
      1.099  0.1084E+02  0.2326E+03
      1.230  0.1519E+02  0.2346E+03
      1.362  0.8145E+01  0.2357E+03
      1.494  0.1495E+02  0.2376E+03
      1.625  0.2309E+02  0.2407E+03
      1.757  0.1531E+02  0.2427E+03
      1.889  0.2777E+02  0.2464E+03
      2.020  0.8363E+01  0.2475E+03
      2.152  0.1619E+02  0.2496E+03
      2.284  0.2639E+02  0.2531E+03
      2.415  0.3308E+02  0.2574E+03
      2.547  0.9603E+01  0.2587E+03
      2.679  0.5179E+01  0.2594E+03
      2.810  0.8743E+01  0.2605E+03
      2.942  0.6470E+01  0.2614E+03
      3.074  0.9188E+01  0.2626E+03
      3.206  0.2445E+01  0.2629E+03
      3.337  0.1607E+01  0.2631E+03
      3.469  0.8634E-03  0.2631E+03
      3.601  0.1895E+01  0.2634E+03
      3.732  0.1479E+01  0.2636E+03
      3.864  0.1764E-03  0.2636E+03
      3.996  0.6399E-06  0.2636E+03
      4.127  0.2963E+00  0.2636E+03
      4.259  0.3049E+01  0.2640E+03
      4.391  0.3000E-01  0.2640E+03
      4.522  0.1848E-08  0.2640E+03
      4.654  0.0000E+00  0.2640E+03
      4.786  0.0000E+00  0.2640E+03
      4.917  0.0000E+00  0.2640E+03
      5.049  0.0000E+00  0.2640E+03
      5.181  0.0000E+00  0.2640E+03
      5.313  0.0000E+00  0.2640E+03
      5.444  0.0000E+00  0.2640E+03
      5.576  0.0000E+00  0.2640E+03
      5.708  0.0000E+00  0.2640E+03
      5.839  0.0000E+00  0.2640E+03
      5.971  0.0000E+00  0.2640E+03
