  51  51   0   0
  0.5138078E+02  0.1230000E-08  0.1230000E-08  0.2000000E-08  0.5000000E-15
  1.000000000000000E-004
  CAR 
                                         
      5.97370955    -33.53506599  301     -3.01729193      1.00000000
    -33.535  0.0000E+00  0.0000E+00
    -33.403  0.0000E+00  0.0000E+00
    -33.272  0.0000E+00  0.0000E+00
    -33.140  0.0000E+00  0.0000E+00
    -33.008  0.0000E+00  0.0000E+00
    -32.877  0.0000E+00  0.0000E+00
    -32.745  0.0000E+00  0.0000E+00
    -32.613  0.0000E+00  0.0000E+00
    -32.481  0.0000E+00  0.0000E+00
    -32.350  0.0000E+00  0.0000E+00
    -32.218  0.0000E+00  0.0000E+00
    -32.086  0.0000E+00  0.0000E+00
    -31.955  0.8225E-08  0.1083E-08
    -31.823  0.1344E+00  0.1771E-01
    -31.691  0.1372E+02  0.1824E+01
    -31.560  0.1336E+01  0.2000E+01
    -31.428  0.2894E-05  0.2000E+01
    -31.296  0.0000E+00  0.2000E+01
    -31.165  0.0000E+00  0.2000E+01
    -31.033  0.0000E+00  0.2000E+01
    -30.901  0.0000E+00  0.2000E+01
    -30.769  0.0000E+00  0.2000E+01
    -30.638  0.0000E+00  0.2000E+01
    -30.506  0.0000E+00  0.2000E+01
    -30.374  0.0000E+00  0.2000E+01
    -30.243  0.0000E+00  0.2000E+01
    -30.111  0.0000E+00  0.2000E+01
    -29.979  0.0000E+00  0.2000E+01
    -29.848  0.0000E+00  0.2000E+01
    -29.716  0.0000E+00  0.2000E+01
    -29.584  0.0000E+00  0.2000E+01
    -29.452  0.0000E+00  0.2000E+01
    -29.321  0.0000E+00  0.2000E+01
    -29.189  0.0000E+00  0.2000E+01
    -29.057  0.0000E+00  0.2000E+01
    -28.926  0.0000E+00  0.2000E+01
    -28.794  0.0000E+00  0.2000E+01
    -28.662  0.0000E+00  0.2000E+01
    -28.531  0.0000E+00  0.2000E+01
    -28.399  0.0000E+00  0.2000E+01
    -28.267  0.0000E+00  0.2000E+01
    -28.136  0.0000E+00  0.2000E+01
    -28.004  0.0000E+00  0.2000E+01
    -27.872  0.0000E+00  0.2000E+01
    -27.740  0.0000E+00  0.2000E+01
    -27.609  0.0000E+00  0.2000E+01
    -27.477  0.0000E+00  0.2000E+01
    -27.345  0.0000E+00  0.2000E+01
    -27.214  0.0000E+00  0.2000E+01
    -27.082  0.0000E+00  0.2000E+01
    -26.950  0.0000E+00  0.2000E+01
    -26.819  0.0000E+00  0.2000E+01
    -26.687  0.0000E+00  0.2000E+01
    -26.555  0.0000E+00  0.2000E+01
    -26.423  0.0000E+00  0.2000E+01
    -26.292  0.0000E+00  0.2000E+01
    -26.160  0.0000E+00  0.2000E+01
    -26.028  0.0000E+00  0.2000E+01
    -25.897  0.0000E+00  0.2000E+01
    -25.765  0.0000E+00  0.2000E+01
    -25.633  0.0000E+00  0.2000E+01
    -25.502  0.0000E+00  0.2000E+01
    -25.370  0.0000E+00  0.2000E+01
    -25.238  0.0000E+00  0.2000E+01
    -25.107  0.0000E+00  0.2000E+01
    -24.975  0.0000E+00  0.2000E+01
    -24.843  0.0000E+00  0.2000E+01
    -24.711  0.0000E+00  0.2000E+01
    -24.580  0.0000E+00  0.2000E+01
    -24.448  0.0000E+00  0.2000E+01
    -24.316  0.0000E+00  0.2000E+01
    -24.185  0.0000E+00  0.2000E+01
    -24.053  0.0000E+00  0.2000E+01
    -23.921  0.0000E+00  0.2000E+01
    -23.790  0.0000E+00  0.2000E+01
    -23.658  0.0000E+00  0.2000E+01
    -23.526  0.0000E+00  0.2000E+01
    -23.394  0.0000E+00  0.2000E+01
    -23.263  0.0000E+00  0.2000E+01
    -23.131  0.0000E+00  0.2000E+01
    -22.999  0.0000E+00  0.2000E+01
    -22.868  0.0000E+00  0.2000E+01
    -22.736  0.0000E+00  0.2000E+01
    -22.604  0.0000E+00  0.2000E+01
    -22.473  0.1042E-07  0.2000E+01
    -22.341  0.4131E-01  0.2005E+01
    -22.209  0.4482E+01  0.2596E+01
    -22.078  0.9192E+01  0.3806E+01
    -21.946  0.4860E+01  0.4446E+01
    -21.814  0.1067E+02  0.5852E+01
    -21.682  0.5483E+01  0.6574E+01
    -21.551  0.7740E+01  0.7593E+01
    -21.419  0.1280E+02  0.9280E+01
    -21.287  0.5467E+01  0.1000E+02
    -21.156  0.3723E+01  0.1049E+02
    -21.024  0.9271E+01  0.1171E+02
    -20.892  0.1098E+02  0.1316E+02
    -20.761  0.9906E+01  0.1446E+02
    -20.629  0.8282E+01  0.1555E+02
    -20.497  0.1921E+00  0.1558E+02
    -20.365  0.1312E+02  0.1731E+02
    -20.234  0.3996E+01  0.1783E+02
    -20.102  0.1859E+02  0.2028E+02
    -19.970  0.1265E+01  0.2045E+02
    -19.839  0.3577E+01  0.2092E+02
    -19.707  0.1379E+02  0.2273E+02
    -19.575  0.8566E+01  0.2386E+02
    -19.444  0.6106E+01  0.2467E+02
    -19.312  0.6790E+01  0.2556E+02
    -19.180  0.1419E+02  0.2743E+02
    -19.049  0.7405E+01  0.2840E+02
    -18.917  0.4914E+01  0.2905E+02
    -18.785  0.5061E+01  0.2972E+02
    -18.653  0.5204E+01  0.3040E+02
    -18.522  0.1396E+02  0.3224E+02
    -18.390  0.1139E+02  0.3374E+02
    -18.258  0.8658E+01  0.3488E+02
    -18.127  0.4827E+01  0.3552E+02
    -17.995  0.1532E+02  0.3753E+02
    -17.863  0.4767E+01  0.3816E+02
    -17.732  0.3755E+01  0.3866E+02
    -17.600  0.5676E+01  0.3940E+02
    -17.468  0.1596E+02  0.4150E+02
    -17.336  0.4301E+01  0.4207E+02
    -17.205  0.2127E+02  0.4487E+02
    -17.073  0.6717E+01  0.4576E+02
    -16.941  0.3542E+01  0.4622E+02
    -16.810  0.8862E+01  0.4739E+02
    -16.678  0.4145E+01  0.4794E+02
    -16.546  0.8856E+01  0.4910E+02
    -16.415  0.8908E+01  0.5028E+02
    -16.283  0.2994E+01  0.5067E+02
    -16.151  0.9325E+01  0.5190E+02
    -16.020  0.5853E+01  0.5267E+02
    -15.888  0.1311E+02  0.5440E+02
    -15.756  0.1189E+02  0.5596E+02
    -15.624  0.2105E+01  0.5624E+02
    -15.493  0.4169E+01  0.5679E+02
    -15.361  0.2817E+01  0.5716E+02
    -15.229  0.1021E+02  0.5850E+02
    -15.098  0.2202E+02  0.6140E+02
    -14.966  0.4715E+01  0.6202E+02
    -14.834  0.1151E+02  0.6354E+02
    -14.703  0.1048E+02  0.6492E+02
    -14.571  0.6368E+01  0.6576E+02
    -14.439  0.1569E+02  0.6783E+02
    -14.307  0.4697E+01  0.6844E+02
    -14.176  0.1106E+01  0.6859E+02
    -14.044  0.4004E+01  0.6912E+02
    -13.912  0.1002E+02  0.7044E+02
    -13.781  0.1703E+02  0.7268E+02
    -13.649  0.1766E+02  0.7501E+02
    -13.517  0.1724E+01  0.7523E+02
    -13.386  0.2453E+01  0.7556E+02
    -13.254  0.4967E+00  0.7562E+02
    -13.122  0.1121E+02  0.7710E+02
    -12.991  0.1383E+02  0.7892E+02
    -12.859  0.2058E+02  0.8163E+02
    -12.727  0.1126E+01  0.8178E+02
    -12.595  0.4960E+01  0.8243E+02
    -12.464  0.1750E+02  0.8474E+02
    -12.332  0.1079E+02  0.8616E+02
    -12.200  0.3667E+01  0.8664E+02
    -12.069  0.3076E+01  0.8704E+02
    -11.937  0.1222E+02  0.8865E+02
    -11.805  0.3512E+01  0.8912E+02
    -11.674  0.1647E+02  0.9128E+02
    -11.542  0.1752E+02  0.9359E+02
    -11.410  0.1342E+02  0.9536E+02
    -11.278  0.8439E+01  0.9647E+02
    -11.147  0.5534E+01  0.9720E+02
    -11.015  0.7798E+01  0.9823E+02
    -10.883  0.1303E+02  0.9994E+02
    -10.752  0.1687E+02  0.1022E+03
    -10.620  0.2170E+01  0.1024E+03
    -10.488  0.2049E+02  0.1051E+03
    -10.357  0.3854E+01  0.1057E+03
    -10.225  0.2478E+02  0.1089E+03
    -10.093  0.2518E+02  0.1122E+03
     -9.961  0.1840E+02  0.1147E+03
     -9.830  0.1516E+02  0.1167E+03
     -9.698  0.1714E+02  0.1189E+03
     -9.566  0.2767E+02  0.1226E+03
     -9.435  0.2082E+02  0.1253E+03
     -9.303  0.2721E+02  0.1289E+03
     -9.171  0.2353E+02  0.1320E+03
     -9.040  0.2888E+02  0.1358E+03
     -8.908  0.1985E+02  0.1384E+03
     -8.776  0.1760E+02  0.1407E+03
     -8.645  0.2354E+02  0.1438E+03
     -8.513  0.1736E+02  0.1461E+03
     -8.381  0.1626E+02  0.1482E+03
     -8.249  0.1537E+02  0.1503E+03
     -8.118  0.1610E+02  0.1524E+03
     -7.986  0.2865E+02  0.1562E+03
     -7.854  0.1621E+02  0.1583E+03
     -7.723  0.1623E+02  0.1604E+03
     -7.591  0.8230E+01  0.1615E+03
     -7.459  0.2032E+01  0.1618E+03
     -7.328  0.1770E+02  0.1641E+03
     -7.196  0.3234E+02  0.1684E+03
     -7.064  0.1558E+02  0.1704E+03
     -6.932  0.4509E+01  0.1710E+03
     -6.801  0.1924E+02  0.1736E+03
     -6.669  0.1277E+02  0.1752E+03
     -6.537  0.1600E+02  0.1773E+03
     -6.406  0.6987E+01  0.1783E+03
     -6.274  0.1244E+02  0.1799E+03
     -6.142  0.1548E+02  0.1819E+03
     -6.011  0.1367E+02  0.1837E+03
     -5.879  0.2033E+02  0.1864E+03
     -5.747  0.7705E+01  0.1874E+03
     -5.616  0.1365E+02  0.1892E+03
     -5.484  0.3277E+01  0.1897E+03
     -5.352  0.7744E+01  0.1907E+03
     -5.220  0.8703E+01  0.1918E+03
     -5.089  0.1197E+02  0.1934E+03
     -4.957  0.1852E+02  0.1958E+03
     -4.825  0.1481E+02  0.1978E+03
     -4.694  0.3187E+01  0.1982E+03
     -4.562  0.7857E-01  0.1982E+03
     -4.430  0.4244E-04  0.1982E+03
     -4.299  0.3104E+01  0.1986E+03
     -4.167  0.1734E+02  0.2009E+03
     -4.035  0.4864E+01  0.2016E+03
     -3.903  0.8004E-03  0.2016E+03
     -3.772  0.4435E+00  0.2016E+03
     -3.640  0.2916E+01  0.2020E+03
     -3.508  0.2905E+00  0.2020E+03
     -3.377  0.4359E+01  0.2026E+03
     -3.245  0.1229E+02  0.2042E+03
     -3.113  0.1086E+02  0.2057E+03
     -2.982  0.2644E+01  0.2060E+03
     -2.850  0.2543E+01  0.2063E+03
     -2.718  0.9133E+01  0.2075E+03
     -2.587  0.7995E-01  0.2076E+03
     -2.455  0.9095E-01  0.2076E+03
     -2.323  0.3169E+01  0.2080E+03
     -2.191  0.2853E+01  0.2084E+03
     -2.060  0.6362E+00  0.2084E+03
     -1.928  0.6849E-05  0.2084E+03
     -1.796  0.3418E-07  0.2084E+03
     -1.665  0.1858E+00  0.2085E+03
     -1.533  0.9500E+01  0.2097E+03
     -1.401  0.1254E+02  0.2114E+03
     -1.270  0.3084E+01  0.2118E+03
     -1.138  0.1343E-03  0.2118E+03
     -1.006  0.1158E+01  0.2119E+03
     -0.874  0.1109E+02  0.2134E+03
     -0.743  0.2306E+02  0.2164E+03
     -0.611  0.1820E+02  0.2188E+03
     -0.479  0.5334E+01  0.2195E+03
     -0.348  0.2444E+00  0.2196E+03
     -0.216  0.4596E+01  0.2202E+03
     -0.084  0.1139E+02  0.2217E+03
      0.047  0.1032E+02  0.2230E+03
      0.179  0.8199E+00  0.2231E+03
      0.311  0.1626E+02  0.2253E+03
      0.442  0.7597E+01  0.2263E+03
      0.574  0.3183E+01  0.2267E+03
      0.706  0.1119E+02  0.2282E+03
      0.838  0.1664E+02  0.2304E+03
      0.969  0.6373E+01  0.2312E+03
      1.101  0.1106E+02  0.2327E+03
      1.233  0.1484E+02  0.2346E+03
      1.364  0.8251E+01  0.2357E+03
      1.496  0.1513E+02  0.2377E+03
      1.628  0.2307E+02  0.2407E+03
      1.759  0.1570E+02  0.2428E+03
      1.891  0.2720E+02  0.2464E+03
      2.023  0.8394E+01  0.2475E+03
      2.155  0.1595E+02  0.2496E+03
      2.286  0.2627E+02  0.2530E+03
      2.418  0.2884E+02  0.2568E+03
      2.550  0.7228E+01  0.2578E+03
      2.681  0.6294E+01  0.2586E+03
      2.813  0.9122E+01  0.2598E+03
      2.945  0.5013E+01  0.2605E+03
      3.076  0.9246E+01  0.2617E+03
      3.208  0.2797E+01  0.2621E+03
      3.340  0.4514E+01  0.2627E+03
      3.471  0.2718E-01  0.2627E+03
      3.603  0.3290E+01  0.2631E+03
      3.735  0.3457E+01  0.2636E+03
      3.867  0.1082E-02  0.2636E+03
      3.998  0.6388E-06  0.2636E+03
      4.130  0.2963E+00  0.2636E+03
      4.262  0.3049E+01  0.2640E+03
      4.393  0.2998E-01  0.2640E+03
      4.525  0.1843E-08  0.2640E+03
      4.657  0.0000E+00  0.2640E+03
      4.788  0.0000E+00  0.2640E+03
      4.920  0.0000E+00  0.2640E+03
      5.052  0.0000E+00  0.2640E+03
      5.184  0.0000E+00  0.2640E+03
      5.315  0.0000E+00  0.2640E+03
      5.447  0.0000E+00  0.2640E+03
      5.579  0.0000E+00  0.2640E+03
      5.710  0.0000E+00  0.2640E+03
      5.842  0.0000E+00  0.2640E+03
      5.974  0.0000E+00  0.2640E+03
