  51  51   0   0
  0.5138078E+02  0.1230000E-08  0.1230000E-08  0.2000000E-08  0.5000000E-15
  1.000000000000000E-004
  CAR 
                                         
      5.96882247    -33.53246062  301     -3.01650176      1.00000000
    -33.532  0.0000E+00  0.0000E+00
    -33.401  0.0000E+00  0.0000E+00
    -33.269  0.0000E+00  0.0000E+00
    -33.137  0.0000E+00  0.0000E+00
    -33.006  0.0000E+00  0.0000E+00
    -32.874  0.0000E+00  0.0000E+00
    -32.742  0.0000E+00  0.0000E+00
    -32.611  0.0000E+00  0.0000E+00
    -32.479  0.0000E+00  0.0000E+00
    -32.347  0.0000E+00  0.0000E+00
    -32.216  0.0000E+00  0.0000E+00
    -32.084  0.0000E+00  0.0000E+00
    -31.952  0.8286E-08  0.1091E-08
    -31.821  0.1346E+00  0.1773E-01
    -31.689  0.1372E+02  0.1824E+01
    -31.557  0.1337E+01  0.2000E+01
    -31.426  0.2910E-05  0.2000E+01
    -31.294  0.0000E+00  0.2000E+01
    -31.162  0.0000E+00  0.2000E+01
    -31.031  0.0000E+00  0.2000E+01
    -30.899  0.0000E+00  0.2000E+01
    -30.767  0.0000E+00  0.2000E+01
    -30.636  0.0000E+00  0.2000E+01
    -30.504  0.0000E+00  0.2000E+01
    -30.372  0.0000E+00  0.2000E+01
    -30.241  0.0000E+00  0.2000E+01
    -30.109  0.0000E+00  0.2000E+01
    -29.977  0.0000E+00  0.2000E+01
    -29.846  0.0000E+00  0.2000E+01
    -29.714  0.0000E+00  0.2000E+01
    -29.582  0.0000E+00  0.2000E+01
    -29.451  0.0000E+00  0.2000E+01
    -29.319  0.0000E+00  0.2000E+01
    -29.187  0.0000E+00  0.2000E+01
    -29.056  0.0000E+00  0.2000E+01
    -28.924  0.0000E+00  0.2000E+01
    -28.792  0.0000E+00  0.2000E+01
    -28.661  0.0000E+00  0.2000E+01
    -28.529  0.0000E+00  0.2000E+01
    -28.397  0.0000E+00  0.2000E+01
    -28.266  0.0000E+00  0.2000E+01
    -28.134  0.0000E+00  0.2000E+01
    -28.002  0.0000E+00  0.2000E+01
    -27.871  0.0000E+00  0.2000E+01
    -27.739  0.0000E+00  0.2000E+01
    -27.607  0.0000E+00  0.2000E+01
    -27.476  0.0000E+00  0.2000E+01
    -27.344  0.0000E+00  0.2000E+01
    -27.212  0.0000E+00  0.2000E+01
    -27.081  0.0000E+00  0.2000E+01
    -26.949  0.0000E+00  0.2000E+01
    -26.817  0.0000E+00  0.2000E+01
    -26.686  0.0000E+00  0.2000E+01
    -26.554  0.0000E+00  0.2000E+01
    -26.422  0.0000E+00  0.2000E+01
    -26.291  0.0000E+00  0.2000E+01
    -26.159  0.0000E+00  0.2000E+01
    -26.027  0.0000E+00  0.2000E+01
    -25.896  0.0000E+00  0.2000E+01
    -25.764  0.0000E+00  0.2000E+01
    -25.632  0.0000E+00  0.2000E+01
    -25.501  0.0000E+00  0.2000E+01
    -25.369  0.0000E+00  0.2000E+01
    -25.237  0.0000E+00  0.2000E+01
    -25.106  0.0000E+00  0.2000E+01
    -24.974  0.0000E+00  0.2000E+01
    -24.842  0.0000E+00  0.2000E+01
    -24.711  0.0000E+00  0.2000E+01
    -24.579  0.0000E+00  0.2000E+01
    -24.447  0.0000E+00  0.2000E+01
    -24.315  0.0000E+00  0.2000E+01
    -24.184  0.0000E+00  0.2000E+01
    -24.052  0.0000E+00  0.2000E+01
    -23.920  0.0000E+00  0.2000E+01
    -23.789  0.0000E+00  0.2000E+01
    -23.657  0.0000E+00  0.2000E+01
    -23.525  0.0000E+00  0.2000E+01
    -23.394  0.0000E+00  0.2000E+01
    -23.262  0.0000E+00  0.2000E+01
    -23.130  0.0000E+00  0.2000E+01
    -22.999  0.0000E+00  0.2000E+01
    -22.867  0.0000E+00  0.2000E+01
    -22.735  0.0000E+00  0.2000E+01
    -22.604  0.0000E+00  0.2000E+01
    -22.472  0.1071E-07  0.2000E+01
    -22.340  0.4170E-01  0.2005E+01
    -22.209  0.4486E+01  0.2596E+01
    -22.077  0.9185E+01  0.3806E+01
    -21.945  0.4868E+01  0.4447E+01
    -21.814  0.1078E+02  0.5866E+01
    -21.682  0.5577E+01  0.6600E+01
    -21.550  0.7596E+01  0.7600E+01
    -21.419  0.1277E+02  0.9282E+01
    -21.287  0.5449E+01  0.9999E+01
    -21.155  0.3786E+01  0.1050E+02
    -21.024  0.9321E+01  0.1173E+02
    -20.892  0.1069E+02  0.1313E+02
    -20.760  0.1000E+02  0.1445E+02
    -20.629  0.8370E+01  0.1555E+02
    -20.497  0.2127E+00  0.1558E+02
    -20.365  0.1312E+02  0.1731E+02
    -20.234  0.3965E+01  0.1783E+02
    -20.102  0.1856E+02  0.2027E+02
    -19.970  0.1307E+01  0.2045E+02
    -19.839  0.3538E+01  0.2091E+02
    -19.707  0.1382E+02  0.2273E+02
    -19.575  0.8624E+01  0.2387E+02
    -19.444  0.6064E+01  0.2467E+02
    -19.312  0.6904E+01  0.2557E+02
    -19.180  0.1398E+02  0.2742E+02
    -19.049  0.7622E+01  0.2842E+02
    -18.917  0.4691E+01  0.2904E+02
    -18.785  0.5192E+01  0.2972E+02
    -18.654  0.5354E+01  0.3043E+02
    -18.522  0.1381E+02  0.3224E+02
    -18.390  0.1136E+02  0.3374E+02
    -18.259  0.8640E+01  0.3488E+02
    -18.127  0.4693E+01  0.3550E+02
    -17.995  0.1548E+02  0.3753E+02
    -17.864  0.4797E+01  0.3817E+02
    -17.732  0.3718E+01  0.3866E+02
    -17.600  0.5906E+01  0.3943E+02
    -17.469  0.1582E+02  0.4152E+02
    -17.337  0.3967E+01  0.4204E+02
    -17.205  0.2138E+02  0.4485E+02
    -17.074  0.6909E+01  0.4576E+02
    -16.942  0.3498E+01  0.4622E+02
    -16.810  0.8923E+01  0.4740E+02
    -16.679  0.4065E+01  0.4793E+02
    -16.547  0.8812E+01  0.4909E+02
    -16.415  0.8798E+01  0.5025E+02
    -16.284  0.3115E+01  0.5066E+02
    -16.152  0.9064E+01  0.5186E+02
    -16.020  0.6042E+01  0.5265E+02
    -15.889  0.1313E+02  0.5438E+02
    -15.757  0.1203E+02  0.5597E+02
    -15.625  0.2156E+01  0.5625E+02
    -15.494  0.4269E+01  0.5681E+02
    -15.362  0.2633E+01  0.5716E+02
    -15.230  0.1012E+02  0.5849E+02
    -15.099  0.2211E+02  0.6140E+02
    -14.967  0.4700E+01  0.6202E+02
    -14.835  0.1154E+02  0.6354E+02
    -14.704  0.1042E+02  0.6491E+02
    -14.572  0.6403E+01  0.6575E+02
    -14.440  0.1568E+02  0.6782E+02
    -14.309  0.4741E+01  0.6844E+02
    -14.177  0.9875E+00  0.6857E+02
    -14.045  0.4113E+01  0.6912E+02
    -13.913  0.1015E+02  0.7045E+02
    -13.782  0.1628E+02  0.7260E+02
    -13.650  0.1821E+02  0.7499E+02
    -13.518  0.1751E+01  0.7522E+02
    -13.387  0.2516E+01  0.7556E+02
    -13.255  0.4370E+00  0.7561E+02
    -13.123  0.1129E+02  0.7710E+02
    -12.992  0.1383E+02  0.7892E+02
    -12.860  0.2043E+02  0.8161E+02
    -12.728  0.1272E+01  0.8178E+02
    -12.597  0.4718E+01  0.8240E+02
    -12.465  0.1752E+02  0.8471E+02
    -12.333  0.1098E+02  0.8615E+02
    -12.202  0.3692E+01  0.8664E+02
    -12.070  0.2737E+01  0.8700E+02
    -11.938  0.1257E+02  0.8865E+02
    -11.807  0.3616E+01  0.8913E+02
    -11.675  0.1579E+02  0.9121E+02
    -11.543  0.1798E+02  0.9358E+02
    -11.412  0.1336E+02  0.9534E+02
    -11.280  0.8641E+01  0.9647E+02
    -11.148  0.5329E+01  0.9717E+02
    -11.017  0.7983E+01  0.9823E+02
    -10.885  0.1288E+02  0.9992E+02
    -10.753  0.1706E+02  0.1022E+03
    -10.622  0.1873E+01  0.1024E+03
    -10.490  0.2052E+02  0.1051E+03
    -10.358  0.3983E+01  0.1056E+03
    -10.227  0.2443E+02  0.1089E+03
    -10.095  0.2546E+02  0.1122E+03
     -9.963  0.1853E+02  0.1146E+03
     -9.832  0.1478E+02  0.1166E+03
     -9.700  0.1727E+02  0.1189E+03
     -9.568  0.2733E+02  0.1225E+03
     -9.437  0.2128E+02  0.1253E+03
     -9.305  0.2724E+02  0.1289E+03
     -9.173  0.2360E+02  0.1320E+03
     -9.042  0.2840E+02  0.1357E+03
     -8.910  0.2034E+02  0.1384E+03
     -8.778  0.1762E+02  0.1407E+03
     -8.647  0.2294E+02  0.1437E+03
     -8.515  0.1760E+02  0.1460E+03
     -8.383  0.1663E+02  0.1482E+03
     -8.252  0.1506E+02  0.1502E+03
     -8.120  0.1608E+02  0.1523E+03
     -7.988  0.2874E+02  0.1561E+03
     -7.857  0.1608E+02  0.1582E+03
     -7.725  0.1666E+02  0.1604E+03
     -7.593  0.7798E+01  0.1615E+03
     -7.462  0.2509E+01  0.1618E+03
     -7.330  0.1704E+02  0.1640E+03
     -7.198  0.3279E+02  0.1683E+03
     -7.067  0.1578E+02  0.1704E+03
     -6.935  0.4247E+01  0.1710E+03
     -6.803  0.1942E+02  0.1735E+03
     -6.672  0.1245E+02  0.1752E+03
     -6.540  0.1628E+02  0.1773E+03
     -6.408  0.7140E+01  0.1783E+03
     -6.277  0.1231E+02  0.1799E+03
     -6.145  0.1555E+02  0.1819E+03
     -6.013  0.1369E+02  0.1837E+03
     -5.882  0.1995E+02  0.1864E+03
     -5.750  0.7813E+01  0.1874E+03
     -5.618  0.1387E+02  0.1892E+03
     -5.487  0.3312E+01  0.1896E+03
     -5.355  0.7739E+01  0.1907E+03
     -5.223  0.8800E+01  0.1918E+03
     -5.092  0.1171E+02  0.1934E+03
     -4.960  0.1780E+02  0.1957E+03
     -4.828  0.1578E+02  0.1978E+03
     -4.697  0.3205E+01  0.1982E+03
     -4.565  0.9277E-01  0.1982E+03
     -4.433  0.2440E-04  0.1982E+03
     -4.302  0.2626E+01  0.1986E+03
     -4.170  0.1737E+02  0.2009E+03
     -4.038  0.5316E+01  0.2016E+03
     -3.906  0.1223E-02  0.2016E+03
     -3.775  0.3444E+00  0.2016E+03
     -3.643  0.3007E+01  0.2020E+03
     -3.511  0.2519E+00  0.2020E+03
     -3.380  0.4140E+01  0.2026E+03
     -3.248  0.1232E+02  0.2042E+03
     -3.116  0.1075E+02  0.2056E+03
     -2.985  0.2977E+01  0.2060E+03
     -2.853  0.2371E+01  0.2063E+03
     -2.721  0.9294E+01  0.2075E+03
     -2.590  0.1070E+00  0.2076E+03
     -2.458  0.7942E-01  0.2076E+03
     -2.326  0.3163E+01  0.2080E+03
     -2.195  0.2803E+01  0.2084E+03
     -2.063  0.7050E+00  0.2084E+03
     -1.931  0.9740E-05  0.2084E+03
     -1.800  0.1679E-07  0.2084E+03
     -1.668  0.1437E+00  0.2085E+03
     -1.536  0.9439E+01  0.2097E+03
     -1.405  0.1266E+02  0.2114E+03
     -1.273  0.3072E+01  0.2118E+03
     -1.141  0.1093E-03  0.2118E+03
     -1.010  0.9821E+00  0.2119E+03
     -0.878  0.1086E+02  0.2133E+03
     -0.746  0.2306E+02  0.2164E+03
     -0.615  0.1843E+02  0.2188E+03
     -0.483  0.5415E+01  0.2195E+03
     -0.351  0.3397E+00  0.2196E+03
     -0.220  0.4420E+01  0.2201E+03
     -0.088  0.1117E+02  0.2216E+03
      0.044  0.1056E+02  0.2230E+03
      0.175  0.9449E+00  0.2231E+03
      0.307  0.1537E+02  0.2252E+03
      0.439  0.8233E+01  0.2262E+03
      0.570  0.3190E+01  0.2267E+03
      0.702  0.1076E+02  0.2281E+03
      0.834  0.1720E+02  0.2303E+03
      0.965  0.6241E+01  0.2312E+03
      1.097  0.1071E+02  0.2326E+03
      1.229  0.1528E+02  0.2346E+03
      1.360  0.8128E+01  0.2357E+03
      1.492  0.1497E+02  0.2376E+03
      1.624  0.2298E+02  0.2406E+03
      1.755  0.1541E+02  0.2427E+03
      1.887  0.2767E+02  0.2463E+03
      2.019  0.8618E+01  0.2475E+03
      2.150  0.1575E+02  0.2495E+03
      2.282  0.2589E+02  0.2529E+03
      2.414  0.2902E+02  0.2568E+03
      2.545  0.7849E+01  0.2578E+03
      2.677  0.6316E+01  0.2586E+03
      2.809  0.8725E+01  0.2598E+03
      2.940  0.5351E+01  0.2605E+03
      3.072  0.9205E+01  0.2617E+03
      3.204  0.2647E+01  0.2620E+03
      3.335  0.4750E+01  0.2627E+03
      3.467  0.3716E-01  0.2627E+03
      3.599  0.2930E+01  0.2631E+03
      3.730  0.3818E+01  0.2636E+03
      3.862  0.2139E-02  0.2636E+03
      3.994  0.6421E-06  0.2636E+03
      4.125  0.2965E+00  0.2636E+03
      4.257  0.3049E+01  0.2640E+03
      4.389  0.3002E-01  0.2640E+03
      4.520  0.1857E-08  0.2640E+03
      4.652  0.0000E+00  0.2640E+03
      4.784  0.0000E+00  0.2640E+03
      4.915  0.0000E+00  0.2640E+03
      5.047  0.0000E+00  0.2640E+03
      5.179  0.0000E+00  0.2640E+03
      5.310  0.0000E+00  0.2640E+03
      5.442  0.0000E+00  0.2640E+03
      5.574  0.0000E+00  0.2640E+03
      5.705  0.0000E+00  0.2640E+03
      5.837  0.0000E+00  0.2640E+03
      5.969  0.0000E+00  0.2640E+03
