<?xml version="1.0" encoding="ISO-8859-1"?>
<modeling>
 <generator>
  <i name="program" type="string">vasp </i>
  <i name="version" type="string">5.4.4.18Apr17-6-g9f103f2a35  </i>
  <i name="subversion" type="string">(build Aug 13 2022 23:40:43) complex            parallel </i>
  <i name="platform" type="string">LinuxIFC </i>
  <i name="date" type="string">2024 11 10 </i>
  <i name="time" type="string">03:48:30 </i>
 </generator>
 <incar>
  <i type="int" name="ISTART">     1</i>
  <i type="string" name="PREC">accurate</i>
  <i type="string" name="ALGO"> F          N:DAV,fine,slow</i>
  <i type="logical" name="ADDGRID"> T  </i>
  <i type="int" name="ISPIN">     1</i>
  <i type="int" name="ICHARG">     1</i>
  <i type="int" name="NELM">   300</i>
  <i type="int" name="IBRION">    -1</i>
  <i name="EDIFF">      0.00001000</i>
  <i name="EDIFFG">     -0.00100000</i>
  <i type="int" name="NSW">     1</i>
  <i type="int" name="ISIF">     2</i>
  <i name="ENCUT">    400.00000000</i>
  <i type="logical" name="LREAL"> F  </i>
  <i type="int" name="ISMEAR">     0</i>
  <i name="SIGMA">      0.05000000</i>
  <i type="logical" name="LWAVE"> F  </i>
  <i type="logical" name="LCHARG"> F  </i>
  <v type="int" name="KPOINT_BSE">    -1     0     0     0</v>
  <i type="int" name="NELM">   300</i>
 </incar>
 <structure name="primitive_cell" >
  <crystal>
   <varray name="basis" >
    <v>      12.30000019       0.00000000       0.00000000 </v>
    <v>       6.15000080      10.65211222       0.00000000 </v>
    <v>       0.00000000       0.00000000      20.00000000 </v>
   </varray>
   <i name="volume">   2620.41964732 </i>
   <varray name="rec_basis" >
    <v>       0.08130081      -0.04693905       0.00000000 </v>
    <v>       0.00000000       0.09387809       0.00000000 </v>
    <v>       0.00000000       0.00000000       0.05000000 </v>
   </varray>
  </crystal>
  <varray name="positions" >
   <v>       0.00000000       0.00000000       0.41799748 </v>
   <v>       0.06666667       0.06666660       0.41800609 </v>
   <v>      -0.13333333       0.06666660       0.41800609 </v>
   <v>       0.06666667      -0.13333340       0.41800609 </v>
   <v>      -0.20000000       0.20000000       0.41799748 </v>
   <v>       0.20000000      -0.20000000       0.41799748 </v>
   <v>       0.20000000       0.00000000       0.41799748 </v>
   <v>      -0.20000000       0.00000000       0.41799748 </v>
   <v>       0.00000000       0.20000000       0.41799748 </v>
   <v>       0.00000000      -0.20000000       0.41799748 </v>
   <v>      -0.13333333       0.26666660       0.41800609 </v>
   <v>       0.26666667      -0.13333340       0.41800609 </v>
   <v>      -0.13333333      -0.13333340       0.41800609 </v>
   <v>       0.06666667       0.26666660       0.41800609 </v>
   <v>      -0.33333333       0.26666660       0.41800609 </v>
   <v>       0.26666667       0.06666660       0.41800609 </v>
   <v>      -0.33333333       0.06666660       0.41800609 </v>
   <v>       0.26666667      -0.33333340       0.41800609 </v>
   <v>       0.06666667      -0.33333340       0.41800609 </v>
   <v>      -0.40000000       0.20000000       0.41799748 </v>
   <v>       0.40000000      -0.20000000       0.41799748 </v>
   <v>      -0.20000000       0.40000000       0.41799748 </v>
   <v>       0.20000000      -0.40000000       0.41799748 </v>
   <v>       0.20000000       0.20000000       0.41799748 </v>
   <v>      -0.20000000      -0.20000000       0.41799748 </v>
   <v>      -0.40000000       0.00081301       0.41799748 </v>
   <v>      -0.40000000       0.40000000       0.41799748 </v>
   <v>       0.40000000      -0.40000000       0.41799748 </v>
   <v>       0.40000000       0.00000000       0.41799748 </v>
   <v>       0.00000000       0.40000000       0.41799748 </v>
   <v>       0.00000000      -0.40000000       0.41799748 </v>
   <v>      -0.13333333       0.46666660       0.41800609 </v>
   <v>      -0.33333333       0.46666660       0.41800609 </v>
   <v>       0.46666667      -0.13333340       0.41800609 </v>
   <v>       0.46666667      -0.33333340       0.41800609 </v>
   <v>      -0.33333333      -0.13333340       0.41800609 </v>
   <v>      -0.13333333      -0.33333340       0.41800609 </v>
   <v>       0.26666667       0.26666660       0.41800609 </v>
   <v>       0.46666667       0.26666660       0.41800609 </v>
   <v>       0.26666667       0.46666660       0.41800609 </v>
   <v>       0.06666667       0.46666660       0.41800609 </v>
   <v>       0.46666667       0.46666660       0.41800609 </v>
   <v>       0.46666667       0.06666660       0.41800609 </v>
   <v>       0.40000000       0.40000000       0.41799748 </v>
   <v>      -0.40000000      -0.40000000       0.41799748 </v>
   <v>       0.40000000       0.20000000       0.41799748 </v>
   <v>      -0.40000000      -0.20000000       0.41799748 </v>
   <v>       0.20000000       0.40000000       0.41799748 </v>
   <v>      -0.20000000      -0.40000000       0.41799748 </v>
   <v>       0.40000000       0.40000000       0.46800609 </v>
   <v>      -0.33333333      -0.33333340       0.41800609 </v>
  </varray>
 </structure>
 <varray name="primitive_index" >
  <v type="int" >        1 </v>
  <v type="int" >       26 </v>
  <v type="int" >       30 </v>
  <v type="int" >       46 </v>
  <v type="int" >       10 </v>
  <v type="int" >       22 </v>
  <v type="int" >        2 </v>
  <v type="int" >        5 </v>
  <v type="int" >        6 </v>
  <v type="int" >       21 </v>
  <v type="int" >       35 </v>
  <v type="int" >       47 </v>
  <v type="int" >       50 </v>
  <v type="int" >       31 </v>
  <v type="int" >       34 </v>
  <v type="int" >       27 </v>
  <v type="int" >       29 </v>
  <v type="int" >       42 </v>
  <v type="int" >       41 </v>
  <v type="int" >        9 </v>
  <v type="int" >       23 </v>
  <v type="int" >       15 </v>
  <v type="int" >       17 </v>
  <v type="int" >        7 </v>
  <v type="int" >       25 </v>
  <v type="int" >        4 </v>
  <v type="int" >       14 </v>
  <v type="int" >       18 </v>
  <v type="int" >        3 </v>
  <v type="int" >       11 </v>
  <v type="int" >       16 </v>
  <v type="int" >       40 </v>
  <v type="int" >       39 </v>
  <v type="int" >       48 </v>
  <v type="int" >       43 </v>
  <v type="int" >       49 </v>
  <v type="int" >       45 </v>
  <v type="int" >       32 </v>
  <v type="int" >       33 </v>
  <v type="int" >       37 </v>
  <v type="int" >       36 </v>
  <v type="int" >       38 </v>
  <v type="int" >       28 </v>
  <v type="int" >       13 </v>
  <v type="int" >       19 </v>
  <v type="int" >        8 </v>
  <v type="int" >       24 </v>
  <v type="int" >       12 </v>
  <v type="int" >       20 </v>
  <v type="int" >       51 </v>
  <v type="int" >       44 </v>
 </varray>
 <kpoints>
  <generation param="Gamma">
   <v type="int" name="divisions">       3        3        1 </v>
   <v name="usershift">      0.00000000       0.00000000       0.00000000 </v>
   <v name="genvec1">      0.33333333      -0.00000000       0.00000000 </v>
   <v name="genvec2">      0.00000000       0.33333333       0.00000000 </v>
   <v name="genvec3">      0.00000000       0.00000000       1.00000000 </v>
   <v name="shift">      0.00000000       0.00000000       0.00000000 </v>
  </generation>
  <varray name="kpointlist" >
   <v>       0.00000000       0.00000000       0.00000000 </v>
   <v>       0.33333333       0.00000000       0.00000000 </v>
   <v>       0.00000000       0.33333333       0.00000000 </v>
   <v>       0.33333333       0.33333333       0.00000000 </v>
   <v>      -0.33333333       0.33333333       0.00000000 </v>
  </varray>
  <varray name="weights" >
   <v>       0.11111111 </v>
   <v>       0.22222222 </v>
   <v>       0.22222222 </v>
   <v>       0.22222222 </v>
   <v>       0.22222222 </v>
  </varray>
 </kpoints>
 <parameters>
  <separator name="general" >
   <i type="string" name="SYSTEM"></i>
   <i type="logical" name="LCOMPAT"> F  </i>
  </separator>
  <separator name="electronic" >
   <i type="string" name="PREC">accura</i>
   <i name="ENMAX">    400.00000000</i>
   <i name="ENAUG">    644.87300000</i>
   <i name="EDIFF">      0.00001000</i>
   <i type="int" name="IALGO">    68</i>
   <i type="int" name="IWAVPR">    10</i>
   <i type="int" name="NBANDS">   132</i>
   <i name="NELECT">    206.00000000</i>
   <i type="int" name="TURBO">     0</i>
   <i type="int" name="IRESTART">     0</i>
   <i type="int" name="NREBOOT">     0</i>
   <i type="int" name="NMIN">     0</i>
   <i name="EREF">      0.00000000</i>
   <separator name="electronic smearing" >
    <i type="int" name="ISMEAR">     0</i>
    <i name="SIGMA">      0.05000000</i>
    <i name="KSPACING">      0.50000000</i>
    <i type="logical" name="KGAMMA"> T  </i>
   </separator>
   <separator name="electronic projectors" >
    <i type="logical" name="LREAL"> F  </i>
    <v name="ROPT">      0.00000000      0.00000000</v>
    <i type="int" name="LMAXPAW">  -100</i>
    <i type="int" name="LMAXMIX">     2</i>
    <i type="logical" name="NLSPLINE"> F  </i>
   </separator>
   <separator name="electronic startup" >
    <i type="int" name="ISTART">     1</i>
    <i type="int" name="ICHARG">     1</i>
    <i type="int" name="INIWAV">     1</i>
   </separator>
   <separator name="electronic spin" >
    <i type="int" name="ISPIN">     1</i>
    <i type="logical" name="LNONCOLLINEAR"> F  </i>
    <v name="MAGMOM">      1.00000000      1.00000000      1.00000000      1.00000000      1.00000000      1.00000000      1.00000000      1.00000000      1.00000000      1.00000000      1.00000000      1.00000000      1.00000000      1.00000000      1.00000000      1.00000000      1.00000000      1.00000000      1.00000000      1.00000000
      1.00000000      1.00000000      1.00000000      1.00000000      1.00000000      1.00000000      1.00000000      1.00000000      1.00000000      1.00000000      1.00000000      1.00000000      1.00000000      1.00000000      1.00000000      1.00000000      1.00000000      1.00000000      1.00000000      1.00000000
      1.00000000      1.00000000      1.00000000      1.00000000      1.00000000      1.00000000      1.00000000      1.00000000      1.00000000      1.00000000      1.00000000</v>
    <i name="NUPDOWN">     -1.00000000</i>
    <i type="logical" name="LSORBIT"> F  </i>
    <v name="SAXIS">      0.00000000      0.00000000      1.00000000</v>
    <i type="logical" name="LSPIRAL"> F  </i>
    <v name="QSPIRAL">      0.00000000      0.00000000      0.00000000</v>
    <i type="logical" name="LZEROZ"> F  </i>
   </separator>
   <separator name="electronic exchange-correlation" >
    <i type="logical" name="LASPH"> F  </i>
    <i type="logical" name="LMETAGGA"> F  </i>
   </separator>
   <separator name="electronic convergence" >
    <i type="int" name="NELM">   300</i>
    <i type="int" name="NELMDL">     0</i>
    <i type="int" name="NELMIN">     2</i>
    <i name="ENINI">    400.00000000</i>
    <separator name="electronic convergence detail" >
     <i type="logical" name="LDIAG"> T  </i>
     <i type="logical" name="LSUBROT"> F  </i>
     <i name="WEIMIN">      0.00000000</i>
     <i name="EBREAK">      0.00000002</i>
     <i name="DEPER">      0.30000000</i>
     <i type="int" name="NRMM">     4</i>
     <i name="TIME">      0.40000000</i>
    </separator>
   </separator>
   <separator name="electronic mixer" >
    <i name="AMIX">      0.40000000</i>
    <i name="BMIX">      1.00000000</i>
    <i name="AMIN">      0.10000000</i>
    <i name="AMIX_MAG">      1.60000000</i>
    <i name="BMIX_MAG">      1.00000000</i>
    <separator name="electronic mixer details" >
     <i type="int" name="IMIX">     4</i>
     <i type="logical" name="MIXFIRST"> F  </i>
     <i type="int" name="MAXMIX">   -45</i>
     <i name="WC">    100.00000000</i>
     <i type="int" name="INIMIX">     1</i>
     <i type="int" name="MIXPRE">     1</i>
     <i type="int" name="MREMOVE">     5</i>
    </separator>
   </separator>
   <separator name="electronic dipolcorrection" >
    <i type="logical" name="LDIPOL"> F  </i>
    <i type="logical" name="LMONO"> F  </i>
    <i type="int" name="IDIPOL">     0</i>
    <i name="EPSILON">      1.00000000</i>
    <v name="DIPOL">   -100.00000000   -100.00000000   -100.00000000</v>
    <i name="EFIELD">      0.00000000</i>
   </separator>
  </separator>
  <separator name="grids" >
   <i type="int" name="NGX">    80</i>
   <i type="int" name="NGY">    80</i>
   <i type="int" name="NGZ">   140</i>
   <i type="int" name="NGXF">   160</i>
   <i type="int" name="NGYF">   160</i>
   <i type="int" name="NGZF">   280</i>
   <i type="logical" name="ADDGRID"> T  </i>
  </separator>
  <separator name="ionic" >
   <i type="int" name="NSW">     1</i>
   <i type="int" name="IBRION">    -1</i>
   <i type="int" name="MDALGO">     0</i>
   <i type="int" name="ISIF">     2</i>
   <i name="PSTRESS">      0.00000000</i>
   <i name="EDIFFG">     -0.00100000</i>
   <i type="int" name="NFREE">     0</i>
   <i name="POTIM">      0.50000000</i>
   <i name="SMASS">     -3.00000000</i>
   <i name="SCALEE">      1.00000000</i>
  </separator>
  <separator name="ionic md" >
   <i name="TEBEG">      0.00010000</i>
   <i name="TEEND">      0.00010000</i>
   <i type="int" name="NBLOCK">     1</i>
   <i type="int" name="KBLOCK">     1</i>
   <i type="int" name="NPACO">   256</i>
   <i name="APACO">     16.00000000</i>
  </separator>
  <separator name="symmetry" >
   <i type="int" name="ISYM">     2</i>
   <i name="SYMPREC">      0.00001000</i>
  </separator>
  <separator name="dos" >
   <i type="int" name="LORBIT">     0</i>
   <v name="RWIGS">     -1.00000000     -1.00000000</v>
   <i type="int" name="NEDOS">   301</i>
   <i name="EMIN">     10.00000000</i>
   <i name="EMAX">    -10.00000000</i>
   <i name="EFERMI">      0.00000000</i>
  </separator>
  <separator name="writing" >
   <i type="int" name="NWRITE">     2</i>
   <i type="logical" name="LWAVE"> F  </i>
   <i type="logical" name="LDOWNSAMPLE"> F  </i>
   <i type="logical" name="LCHARG"> F  </i>
   <i type="logical" name="LPARD"> F  </i>
   <i type="logical" name="LVTOT"> F  </i>
   <i type="logical" name="LVHAR"> F  </i>
   <i type="logical" name="LELF"> F  </i>
   <i type="logical" name="LOPTICS"> F  </i>
   <v name="STM">      0.00000000      0.00000000      0.00000000      0.00000000      0.00000000      0.00000000      0.00000000</v>
  </separator>
  <separator name="performance" >
   <i type="int" name="NPAR">     6</i>
   <i type="int" name="NSIM">     4</i>
   <i type="int" name="NBLK">    -1</i>
   <i type="logical" name="LPLANE"> T  </i>
   <i type="logical" name="LSCALAPACK"> T  </i>
   <i type="logical" name="LSCAAWARE"> F  </i>
   <i type="logical" name="LSCALU"> F  </i>
   <i type="logical" name="LASYNC"> F  </i>
   <i type="logical" name="LORBITALREAL"> F  </i>
  </separator>
  <separator name="miscellaneous" >
   <i type="int" name="IDIOT">     3</i>
   <i type="int" name="ISPECIAL">     0</i>
   <i type="logical" name="LMUSIC"> F  </i>
   <v name="POMASS">     12.01100000     16.00000000</v>
   <v name="DARWINR">      0.00000000      0.00000000</v>
   <v name="DARWINV">      1.00000000      1.00000000</v>
   <i type="logical" name="LCORR"> T  </i>
  </separator>
  <i type="logical" name="GGA_COMPAT"> T  </i>
  <i type="logical" name="LBERRY"> F  </i>
  <i type="int" name="ICORELEVEL">     0</i>
  <i type="logical" name="LDAU"> F  </i>
  <i type="int" name="I_CONSTRAINED_M">     0</i>
  <separator name="electronic exchange-correlation" >
   <i type="string" name="GGA">--</i>
   <i type="int" name="VOSKOWN">     0</i>
   <i type="logical" name="LHFCALC"> F  </i>
   <i type="string" name="PRECFOCK"></i>
   <i type="logical" name="LSYMGRAD"> F  </i>
   <i type="logical" name="LHFONE"> F  </i>
   <i type="logical" name="LRHFCALC"> F  </i>
   <i type="logical" name="LTHOMAS"> F  </i>
   <i type="logical" name="LMODELHF"> F  </i>
   <i name="ENCUT4O">     -1.00000000</i>
   <i type="int" name="EXXOEP">     0</i>
   <i type="int" name="FOURORBIT">     0</i>
   <i name="AEXX">      0.00000000</i>
   <i name="HFALPHA">      0.00000000</i>
   <i name="MCALPHA">      0.00000000</i>
   <i name="ALDAX">      1.00000000</i>
   <i name="AGGAX">      1.00000000</i>
   <i name="ALDAC">      1.00000000</i>
   <i name="AGGAC">      1.00000000</i>
   <i type="int" name="NKREDX">     1</i>
   <i type="int" name="NKREDY">     1</i>
   <i type="int" name="NKREDZ">     1</i>
   <i type="logical" name="SHIFTRED"> F  </i>
   <i type="logical" name="ODDONLY"> F  </i>
   <i type="logical" name="EVENONLY"> F  </i>
   <i type="int" name="LMAXFOCK">     0</i>
   <i type="int" name="NMAXFOCKAE">     0</i>
   <i type="logical" name="LFOCKAEDFT"> F  </i>
   <i name="HFSCREEN">      0.00000000</i>
   <i name="HFSCREENC">      0.00000000</i>
   <i type="int" name="NBANDSGWLOW">     0</i>
  </separator>
  <separator name="vdW DFT" >
   <i type="logical" name="LUSE_VDW"> F  </i>
   <i name="Zab_VDW">     -0.84910000</i>
   <i name="PARAM1">      0.12340000</i>
   <i name="PARAM2">      1.00000000</i>
   <i name="PARAM3">      0.00000000</i>
  </separator>
  <separator name="model GW" >
   <i type="int" name="MODEL_GW">     0</i>
   <i name="MODEL_EPS0">     30.82846644</i>
   <i name="MODEL_ALPHA">      1.00000000</i>
  </separator>
  <separator name="linear response parameters" >
   <i type="logical" name="LEPSILON"> F  </i>
   <i type="logical" name="LRPA"> F  </i>
   <i type="logical" name="LNABLA"> F  </i>
   <i type="logical" name="LVEL"> F  </i>
   <i type="int" name="KINTER">     0</i>
   <i name="CSHIFT">      0.10000000</i>
   <i name="OMEGAMAX">     -1.00000000</i>
   <i name="DEG_THRESHOLD">      0.00200000</i>
   <i name="RTIME">     -0.10000000</i>
   <i name="WPLASMAI">      0.00000000</i>
   <v name="DFIELD">      0.00000000      0.00000000      0.00000000</v>
   <v name="WPLASMA">      0.00000000      0.00000000      0.00000000      0.00000000      0.00000000      0.00000000      0.00000000      0.00000000      0.00000000</v>
  </separator>
  <separator name="orbital magnetization" >
   <i type="logical" name="NUCIND"> F  </i>
   <v name="MAGPOS">      0.00000000      0.00000000      0.00000000</v>
   <i type="logical" name="LNICSALL"> T  </i>
   <i type="logical" name="ORBITALMAG"> F  </i>
   <i type="logical" name="LMAGBLOCH"> F  </i>
   <i type="logical" name="LCHIMAG"> F  </i>
   <i type="logical" name="LGAUGE"> T  </i>
   <i type="int" name="MAGATOM">     0</i>
   <v name="MAGDIPOL">      0.00000000      0.00000000      0.00000000</v>
   <v name="AVECCONST">      0.00000000      0.00000000      0.00000000</v>
  </separator>
  <separator name="response functions" >
   <i type="logical" name="LADDER"> F  </i>
   <i type="logical" name="LRPAFORCE"> F  </i>
   <i type="logical" name="LFXC"> F  </i>
   <i type="logical" name="LHARTREE"> T  </i>
   <i type="int" name="IBSE">     0</i>
   <v type="int" name="KPOINT">    -1     0     0     0</v>
   <i type="logical" name="LTCTE"> F  </i>
   <i type="logical" name="LTETE"> F  </i>
   <i type="logical" name="LTRIPLET"> F  </i>
   <i type="logical" name="LFXCEPS"> F  </i>
   <i type="logical" name="LFXHEG"> F  </i>
   <i type="int" name="NATURALO">     2</i>
   <i type="logical" name="L2ORDER"> F  </i>
   <i type="logical" name="LMP2LT"> F  </i>
   <i type="logical" name="LUSEW"> F  </i>
   <i name="ENCUTGW">     -2.00000000</i>
   <i name="ENCUTGWSOFT">     -2.00000000</i>
   <i name="ENCUTLF">     -1.00000000</i>
   <i type="int" name="LMAXMP2">    -1</i>
   <i name="SCISSOR">      0.00000000</i>
   <i type="int" name="NOMEGA">     0</i>
   <i type="int" name="NOMEGAR">     0</i>
   <i type="int" name="NBANDSGW">    -1</i>
   <i type="int" name="NBANDSO">    -1</i>
   <i type="int" name="NBANDSV">    -1</i>
   <i type="int" name="NELM">   300</i>
   <i type="int" name="NELMHF">     1</i>
   <i type="int" name="DIM">     3</i>
   <i type="int" name="ANTIRES">     0</i>
   <i name="OMEGAMAX">    -30.00000000</i>
   <i name="OMEGAMIN">    -30.00000000</i>
   <i name="OMEGATL">   -200.00000000</i>
   <i type="int" name="OMEGAGRID">   140</i>
   <i name="CSHIFT">     -0.10000000</i>
   <i type="logical" name="SELFENERGY"> F  </i>
   <i type="logical" name="LSPECTRAL"> F  </i>
   <i type="logical" name="LSPECTRALGW"> F  </i>
   <i type="logical" name="LSINGLES"> F  </i>
   <i type="logical" name="LFERMIGW"> F  </i>
   <i type="logical" name="ODDONLYGW"> F  </i>
   <i type="logical" name="EVENONLYGW"> F  </i>
   <i type="int" name="NKREDLFX">     1</i>
   <i type="int" name="NKREDLFY">     1</i>
   <i type="int" name="NKREDLFZ">     1</i>
   <i type="int" name="MAXMEM">  2800</i>
   <i type="int" name="TELESCOPE">     0</i>
   <i type="int" name="TAUPAR">     1</i>
   <i type="int" name="OMEGAPAR">    -1</i>
   <i name="LAMBDA">      1.00000000</i>
  </separator>
  <separator name="External order field" >
   <i name="OFIELD_KAPPA">      0.00000000</i>
   <v name="OFIELD_K">      0.00000000      0.00000000      0.00000000</v>
   <i name="OFIELD_Q6_NEAR">      0.00000000</i>
   <i name="OFIELD_Q6_FAR">      0.00000000</i>
   <i name="OFIELD_A">      0.00000000</i>
  </separator>
 </parameters>
 <atominfo>
  <atoms>      51 </atoms>
  <types>       2 </types>
  <array name="atoms" >
   <dimension dim="1">ion</dimension>
   <field type="string">element</field>
   <field type="int">atomtype</field>
   <set>
    <rc><c>C </c><c>   1</c></rc>
    <rc><c>C </c><c>   1</c></rc>
    <rc><c>C </c><c>   1</c></rc>
    <rc><c>C </c><c>   1</c></rc>
    <rc><c>C </c><c>   1</c></rc>
    <rc><c>C </c><c>   1</c></rc>
    <rc><c>C </c><c>   1</c></rc>
    <rc><c>C </c><c>   1</c></rc>
    <rc><c>C </c><c>   1</c></rc>
    <rc><c>C </c><c>   1</c></rc>
    <rc><c>C </c><c>   1</c></rc>
    <rc><c>C </c><c>   1</c></rc>
    <rc><c>C </c><c>   1</c></rc>
    <rc><c>C </c><c>   1</c></rc>
    <rc><c>C </c><c>   1</c></rc>
    <rc><c>C </c><c>   1</c></rc>
    <rc><c>C </c><c>   1</c></rc>
    <rc><c>C </c><c>   1</c></rc>
    <rc><c>C </c><c>   1</c></rc>
    <rc><c>C </c><c>   1</c></rc>
    <rc><c>C </c><c>   1</c></rc>
    <rc><c>C </c><c>   1</c></rc>
    <rc><c>C </c><c>   1</c></rc>
    <rc><c>C </c><c>   1</c></rc>
    <rc><c>C </c><c>   1</c></rc>
    <rc><c>C </c><c>   1</c></rc>
    <rc><c>C </c><c>   1</c></rc>
    <rc><c>C </c><c>   1</c></rc>
    <rc><c>C </c><c>   1</c></rc>
    <rc><c>C </c><c>   1</c></rc>
    <rc><c>C </c><c>   1</c></rc>
    <rc><c>C </c><c>   1</c></rc>
    <rc><c>C </c><c>   1</c></rc>
    <rc><c>C </c><c>   1</c></rc>
    <rc><c>C </c><c>   1</c></rc>
    <rc><c>C </c><c>   1</c></rc>
    <rc><c>C </c><c>   1</c></rc>
    <rc><c>C </c><c>   1</c></rc>
    <rc><c>C </c><c>   1</c></rc>
    <rc><c>C </c><c>   1</c></rc>
    <rc><c>C </c><c>   1</c></rc>
    <rc><c>C </c><c>   1</c></rc>
    <rc><c>C </c><c>   1</c></rc>
    <rc><c>C </c><c>   1</c></rc>
    <rc><c>C </c><c>   1</c></rc>
    <rc><c>C </c><c>   1</c></rc>
    <rc><c>C </c><c>   1</c></rc>
    <rc><c>C </c><c>   1</c></rc>
    <rc><c>C </c><c>   1</c></rc>
    <rc><c>C </c><c>   1</c></rc>
    <rc><c>O </c><c>   2</c></rc>
   </set>
  </array>
  <array name="atomtypes" >
   <dimension dim="1">type</dimension>
   <field type="int">atomspertype</field>
   <field type="string">element</field>
   <field>mass</field>
   <field>valence</field>
   <field type="string">pseudopotential</field>
   <set>
    <rc><c>  50</c><c>C </c><c>     12.01100000</c><c>      4.00000000</c><c>  PAW_PBE C 08Apr2002                   </c></rc>
    <rc><c>   1</c><c>O </c><c>     16.00000000</c><c>      6.00000000</c><c>  PAW_PBE O 08Apr2002                   </c></rc>
   </set>
  </array>
 </atominfo>
 <structure name="initialpos" >
  <crystal>
   <varray name="basis" >
    <v>      12.30000019       0.00000000       0.00000000 </v>
    <v>       6.15000080      10.65211222       0.00000000 </v>
    <v>       0.00000000       0.00000000      20.00000000 </v>
   </varray>
   <i name="volume">   2620.41964732 </i>
   <varray name="rec_basis" >
    <v>       0.08130081      -0.04693905       0.00000000 </v>
    <v>       0.00000000       0.09387809       0.00000000 </v>
    <v>       0.00000000       0.00000000       0.05000000 </v>
   </varray>
  </crystal>
  <varray name="positions" >
   <v>       0.00000000       0.00000000       0.41799748 </v>
   <v>       0.20000000       0.00000000       0.41799748 </v>
   <v>       0.40000000       0.00000000       0.41799748 </v>
   <v>       0.60000000       0.00081301       0.41799748 </v>
   <v>       0.80000000       0.00000000       0.41799748 </v>
   <v>       0.00000000       0.20000000       0.41799748 </v>
   <v>       0.20000000       0.20000000       0.41799748 </v>
   <v>       0.40000000       0.20000000       0.41799748 </v>
   <v>       0.60000000       0.20000000       0.41799748 </v>
   <v>       0.80000000       0.20000000       0.41799748 </v>
   <v>       0.00000000       0.40000000       0.41799748 </v>
   <v>       0.20000000       0.40000000       0.41799748 </v>
   <v>       0.40000000       0.40000000       0.41799748 </v>
   <v>       0.60000000       0.40000000       0.41799748 </v>
   <v>       0.80000000       0.40000000       0.41799748 </v>
   <v>       0.00000000       0.60000000       0.41799748 </v>
   <v>       0.20000000       0.60000000       0.41799748 </v>
   <v>       0.40000000       0.60000000       0.41799748 </v>
   <v>       0.60000000       0.60000000       0.41799748 </v>
   <v>       0.80000000       0.60000000       0.41799748 </v>
   <v>       0.00000000       0.80000000       0.41799748 </v>
   <v>       0.20000000       0.80000000       0.41799748 </v>
   <v>       0.40000000       0.80000000       0.41799748 </v>
   <v>       0.60000000       0.80000000       0.41799748 </v>
   <v>       0.80000000       0.80000000       0.41799748 </v>
   <v>       0.06666667       0.06666660       0.41800609 </v>
   <v>       0.26666667       0.06666660       0.41800609 </v>
   <v>       0.46666667       0.06666660       0.41800609 </v>
   <v>       0.66666667       0.06666660       0.41800609 </v>
   <v>       0.86666667       0.06666660       0.41800609 </v>
   <v>       0.06666667       0.26666660       0.41800609 </v>
   <v>       0.26666667       0.26666660       0.41800609 </v>
   <v>       0.46666667       0.26666660       0.41800609 </v>
   <v>       0.66666667       0.26666660       0.41800609 </v>
   <v>       0.86666667       0.26666660       0.41800609 </v>
   <v>       0.06666667       0.46666660       0.41800609 </v>
   <v>       0.26666667       0.46666660       0.41800609 </v>
   <v>       0.46666667       0.46666660       0.41800609 </v>
   <v>       0.66666667       0.46666660       0.41800609 </v>
   <v>       0.86666667       0.46666660       0.41800609 </v>
   <v>       0.06666667       0.66666660       0.41800609 </v>
   <v>       0.26666667       0.66666660       0.41800609 </v>
   <v>       0.46666667       0.66666660       0.41800609 </v>
   <v>       0.66666667       0.66666660       0.41800609 </v>
   <v>       0.86666667       0.66666660       0.41800609 </v>
   <v>       0.06666667       0.86666660       0.41800609 </v>
   <v>       0.26666667       0.86666660       0.41800609 </v>
   <v>       0.46666667       0.86666660       0.41800609 </v>
   <v>       0.66666667       0.86666660       0.41800609 </v>
   <v>       0.86666667       0.86666660       0.41800609 </v>
   <v>       0.40000000       0.40000000       0.46800609 </v>
  </varray>
  <varray name="velocities" >
   <v>       0.00000000       0.00000000       0.00000000 </v>
   <v>       0.00000000       0.00000000       0.00000000 </v>
   <v>       0.00000000       0.00000000       0.00000000 </v>
   <v>       0.00000000       0.00000000       0.00000000 </v>
   <v>       0.00000000       0.00000000       0.00000000 </v>
   <v>       0.00000000       0.00000000       0.00000000 </v>
   <v>       0.00000000       0.00000000       0.00000000 </v>
   <v>       0.00000000       0.00000000       0.00000000 </v>
   <v>       0.00000000       0.00000000       0.00000000 </v>
   <v>       0.00000000       0.00000000       0.00000000 </v>
   <v>       0.00000000       0.00000000       0.00000000 </v>
   <v>       0.00000000       0.00000000       0.00000000 </v>
   <v>       0.00000000       0.00000000       0.00000000 </v>
   <v>       0.00000000       0.00000000       0.00000000 </v>
   <v>       0.00000000       0.00000000       0.00000000 </v>
   <v>       0.00000000       0.00000000       0.00000000 </v>
   <v>       0.00000000       0.00000000       0.00000000 </v>
   <v>       0.00000000       0.00000000       0.00000000 </v>
   <v>       0.00000000       0.00000000       0.00000000 </v>
   <v>       0.00000000       0.00000000       0.00000000 </v>
   <v>       0.00000000       0.00000000       0.00000000 </v>
   <v>       0.00000000       0.00000000       0.00000000 </v>
   <v>       0.00000000       0.00000000       0.00000000 </v>
   <v>       0.00000000       0.00000000       0.00000000 </v>
   <v>       0.00000000       0.00000000       0.00000000 </v>
   <v>       0.00000000       0.00000000       0.00000000 </v>
   <v>       0.00000000       0.00000000       0.00000000 </v>
   <v>       0.00000000       0.00000000       0.00000000 </v>
   <v>       0.00000000       0.00000000       0.00000000 </v>
   <v>       0.00000000       0.00000000       0.00000000 </v>
   <v>       0.00000000       0.00000000       0.00000000 </v>
   <v>       0.00000000       0.00000000       0.00000000 </v>
   <v>       0.00000000       0.00000000       0.00000000 </v>
   <v>       0.00000000       0.00000000       0.00000000 </v>
   <v>       0.00000000       0.00000000       0.00000000 </v>
   <v>       0.00000000       0.00000000       0.00000000 </v>
   <v>       0.00000000       0.00000000       0.00000000 </v>
   <v>       0.00000000       0.00000000       0.00000000 </v>
   <v>       0.00000000       0.00000000       0.00000000 </v>
   <v>       0.00000000       0.00000000       0.00000000 </v>
   <v>       0.00000000       0.00000000       0.00000000 </v>
   <v>       0.00000000       0.00000000       0.00000000 </v>
   <v>       0.00000000       0.00000000       0.00000000 </v>
   <v>       0.00000000       0.00000000       0.00000000 </v>
   <v>       0.00000000       0.00000000       0.00000000 </v>
   <v>       0.00000000       0.00000000       0.00000000 </v>
   <v>       0.00000000       0.00000000       0.00000000 </v>
   <v>       0.00000000       0.00000000       0.00000000 </v>
   <v>       0.00000000       0.00000000       0.00000000 </v>
   <v>       0.00000000       0.00000000       0.00000000 </v>
   <v>       0.00000000       0.00000000       0.00000000 </v>
  </varray>
 </structure>
 <calculation>
  <scstep>
   <time name="dav">    4.13    4.13</time>
   <time name="total">    4.72    4.72</time>
   <energy>
    <i name="alphaZ">     82.54348252 </i>
    <i name="ewald">  34516.66480766 </i>
    <i name="hartreedc"> -41034.96747045 </i>
    <i name="XCdc">    721.38006343 </i>
    <i name="pawpsdc">  22781.19595426 </i>
    <i name="pawaedc"> -22817.52509957 </i>
    <i name="eentropy">     -0.00050466 </i>
    <i name="bandstr">  -2491.20718176 </i>
    <i name="atom">   7788.62438962 </i>
    <i name="e_fr_energy">   -453.29155895 </i>
    <i name="e_wo_entrp">   -453.29105428 </i>
    <i name="e_0_energy">   -453.29130661 </i>
   </energy>
  </scstep>
  <scstep>
   <time name="diag">    0.89    0.89</time>
   <time name="diis">    3.76    3.76</time>
   <time name="orth">    0.04    0.04</time>
   <time name="total">    5.27    5.28</time>
   <energy>
    <i name="e_fr_energy">   -454.27926097 </i>
    <i name="e_wo_entrp">   -454.27916297 </i>
    <i name="e_0_energy">   -454.27921197 </i>
   </energy>
  </scstep>
  <scstep>
   <time name="diag">    0.89    0.89</time>
   <time name="diis">    4.10    4.14</time>
   <time name="orth">    0.04    0.04</time>
   <time name="total">    5.61    5.67</time>
   <energy>
    <i name="e_fr_energy">   -454.33157158 </i>
    <i name="e_wo_entrp">   -454.33144693 </i>
    <i name="e_0_energy">   -454.33150926 </i>
   </energy>
  </scstep>
  <scstep>
   <time name="diag">    0.88    0.89</time>
   <time name="diis">    4.11    4.16</time>
   <time name="orth">    0.04    0.04</time>
   <time name="total">    5.60    5.67</time>
   <energy>
    <i name="e_fr_energy">   -454.33543530 </i>
    <i name="e_wo_entrp">   -454.33532724 </i>
    <i name="e_0_energy">   -454.33538127 </i>
   </energy>
  </scstep>
  <scstep>
   <time name="diag">    0.96    0.97</time>
   <time name="diis">    3.99    4.17</time>
   <time name="orth">    0.08    0.08</time>
   <time name="total">    5.60    5.82</time>
   <energy>
    <i name="e_fr_energy">   -454.33554481 </i>
    <i name="e_wo_entrp">   -454.33543290 </i>
    <i name="e_0_energy">   -454.33548885 </i>
   </energy>
  </scstep>
  <scstep>
   <time name="diag">    1.07    1.08</time>
   <time name="diis">    4.00    4.04</time>
   <time name="orth">    0.04    0.04</time>
   <time name="total">    5.79    5.85</time>
   <energy>
    <i name="e_fr_energy">   -454.33557313 </i>
    <i name="e_wo_entrp">   -454.33546006 </i>
    <i name="e_0_energy">   -454.33551660 </i>
   </energy>
  </scstep>
  <scstep>
   <time name="diag">    0.89    0.90</time>
   <time name="diis">    2.89    2.91</time>
   <time name="orth">    0.04    0.04</time>
   <time name="total">    3.99    4.03</time>
   <energy>
    <i name="alphaZ">     82.54348252 </i>
    <i name="ewald">  34516.66480766 </i>
    <i name="hartreedc"> -41035.05869699 </i>
    <i name="XCdc">    721.38601082 </i>
    <i name="pawpsdc">  22777.33940277 </i>
    <i name="pawaedc"> -22813.67184765 </i>
    <i name="eentropy">     -0.00011424 </i>
    <i name="bandstr">  -2492.16301503 </i>
    <i name="atom">   7788.62438962 </i>
    <i name="e_fr_energy">   -454.33558053 </i>
    <i name="e_wo_entrp">   -454.33546630 </i>
    <i name="e_0_energy">   -454.33552342 </i>
   </energy>
  </scstep>
  <structure>
   <crystal>
    <varray name="basis" >
     <v>      12.30000019       0.00000000       0.00000000 </v>
     <v>       6.15000080      10.65211222       0.00000000 </v>
     <v>       0.00000000       0.00000000      20.00000000 </v>
    </varray>
    <i name="volume">   2620.41964732 </i>
    <varray name="rec_basis" >
     <v>       0.08130081      -0.04693905       0.00000000 </v>
     <v>       0.00000000       0.09387809       0.00000000 </v>
     <v>       0.00000000       0.00000000       0.05000000 </v>
    </varray>
   </crystal>
   <varray name="positions" >
    <v>       0.00000000       0.00000000       0.41799748 </v>
    <v>       0.20000000       0.00000000       0.41799748 </v>
    <v>       0.40000000       0.00000000       0.41799748 </v>
    <v>       0.60000000       0.00081301       0.41799748 </v>
    <v>       0.80000000       0.00000000       0.41799748 </v>
    <v>       0.00000000       0.20000000       0.41799748 </v>
    <v>       0.20000000       0.20000000       0.41799748 </v>
    <v>       0.40000000       0.20000000       0.41799748 </v>
    <v>       0.60000000       0.20000000       0.41799748 </v>
    <v>       0.80000000       0.20000000       0.41799748 </v>
    <v>       0.00000000       0.40000000       0.41799748 </v>
    <v>       0.20000000       0.40000000       0.41799748 </v>
    <v>       0.40000000       0.40000000       0.41799748 </v>
    <v>       0.60000000       0.40000000       0.41799748 </v>
    <v>       0.80000000       0.40000000       0.41799748 </v>
    <v>       0.00000000       0.60000000       0.41799748 </v>
    <v>       0.20000000       0.60000000       0.41799748 </v>
    <v>       0.40000000       0.60000000       0.41799748 </v>
    <v>       0.60000000       0.60000000       0.41799748 </v>
    <v>       0.80000000       0.60000000       0.41799748 </v>
    <v>       0.00000000       0.80000000       0.41799748 </v>
    <v>       0.20000000       0.80000000       0.41799748 </v>
    <v>       0.40000000       0.80000000       0.41799748 </v>
    <v>       0.60000000       0.80000000       0.41799748 </v>
    <v>       0.80000000       0.80000000       0.41799748 </v>
    <v>       0.06666667       0.06666660       0.41800609 </v>
    <v>       0.26666667       0.06666660       0.41800609 </v>
    <v>       0.46666667       0.06666660       0.41800609 </v>
    <v>       0.66666667       0.06666660       0.41800609 </v>
    <v>       0.86666667       0.06666660       0.41800609 </v>
    <v>       0.06666667       0.26666660       0.41800609 </v>
    <v>       0.26666667       0.26666660       0.41800609 </v>
    <v>       0.46666667       0.26666660       0.41800609 </v>
    <v>       0.66666667       0.26666660       0.41800609 </v>
    <v>       0.86666667       0.26666660       0.41800609 </v>
    <v>       0.06666667       0.46666660       0.41800609 </v>
    <v>       0.26666667       0.46666660       0.41800609 </v>
    <v>       0.46666667       0.46666660       0.41800609 </v>
    <v>       0.66666667       0.46666660       0.41800609 </v>
    <v>       0.86666667       0.46666660       0.41800609 </v>
    <v>       0.06666667       0.66666660       0.41800609 </v>
    <v>       0.26666667       0.66666660       0.41800609 </v>
    <v>       0.46666667       0.66666660       0.41800609 </v>
    <v>       0.66666667       0.66666660       0.41800609 </v>
    <v>       0.86666667       0.66666660       0.41800609 </v>
    <v>       0.06666667       0.86666660       0.41800609 </v>
    <v>       0.26666667       0.86666660       0.41800609 </v>
    <v>       0.46666667       0.86666660       0.41800609 </v>
    <v>       0.66666667       0.86666660       0.41800609 </v>
    <v>       0.86666667       0.86666660       0.41800609 </v>
    <v>       0.40000000       0.40000000       0.46800609 </v>
   </varray>
  </structure>
  <varray name="forces" >
   <v>      -0.04590677      -0.02965471       0.00932342 </v>
   <v>       0.04763327      -0.03030637       0.00938955 </v>
   <v>      -0.13824672      -0.00617291      -0.02583463 </v>
   <v>      -0.32132612      -0.75479267      -0.02680308 </v>
   <v>       0.18249554      -0.00789621      -0.02519490 </v>
   <v>       0.00055420       0.05614934       0.00937916 </v>
   <v>       0.42992131       0.24867298       0.00004285 </v>
   <v>       0.06887558      -0.19644527       0.16372082 </v>
   <v>      -0.07796416      -0.15964667       0.16171044 </v>
   <v>      -0.42732430       0.25103680       0.00016567 </v>
   <v>      -0.06760575      -0.14432139      -0.02609098 </v>
   <v>      -0.13285367       0.18253646       0.16545922 </v>
   <v>       0.00171380      -0.01366408     -48.15789566 </v>
   <v>       0.13439402       0.18495080       0.16548319 </v>
   <v>       0.06956011      -0.14370167      -0.02612191 </v>
   <v>      -0.18249711       0.10404729      -0.02699688 </v>
   <v>      -0.22402047       0.02334353       0.16554332 </v>
   <v>       0.22609017       0.02134462       0.16541005 </v>
   <v>       0.18141302       0.10479460      -0.02704838 </v>
   <v>       0.00113873      -0.00790204       0.01786005 </v>
   <v>       0.09275070       0.13141581      -0.02628157 </v>
   <v>       0.00037468      -0.49480771       0.00007148 </v>
   <v>      -0.08767805       0.13321657      -0.02608059 </v>
   <v>       0.01391077       0.04471391       0.01788410 </v>
   <v>      -0.02114573       0.01796016       0.01795337 </v>
   <v>      -0.00068765      -0.00040766      -0.00607689 </v>
   <v>       0.10301569      -0.21376226       0.01014923 </v>
   <v>       0.24619194       0.34098263       0.25643244 </v>
   <v>      -0.01758389       0.40758157       0.25771004 </v>
   <v>      -0.10477595      -0.22038062       0.00991680 </v>
   <v>      -0.14087745       0.19184169       0.01010004 </v>
   <v>      -0.44219131      -0.24791914      -0.35519245 </v>
   <v>       0.01225875      -5.08881538      -4.35854421 </v>
   <v>       0.43603116      -0.25302886      -0.35666969 </v>
   <v>       0.13831660       0.19134500       0.01020769 </v>
   <v>       0.31480216       0.04325002       0.25685669 </v>
   <v>      -4.39135864       2.53611327      -4.34336636 </v>
   <v>       4.39205366       2.53692456      -4.34615489 </v>
   <v>      -0.31608754       0.04305476       0.25722834 </v>
   <v>      -0.00143637       0.07849448      -0.02204687 </v>
   <v>       0.12089455      -0.29310003       0.25669054 </v>
   <v>      -0.00074184       0.51032276      -0.35554008 </v>
   <v>      -0.12123530      -0.29537621       0.25709491 </v>
   <v>      -0.07771096      -0.05286054      -0.02647563 </v>
   <v>       0.08273323      -0.05717789      -0.02641937 </v>
   <v>      -0.23699015       0.02538039       0.01009494 </v>
   <v>       0.23470489       0.02605173       0.01014907 </v>
   <v>       0.05958259      -0.03697647      -0.02197166 </v>
   <v>       0.05339575       0.31502947      -0.02663172 </v>
   <v>      -0.06201853      -0.02602781      -0.02172470 </v>
   <v>      -0.00454243       0.02458940      59.98913566 </v>
  </varray>
  <varray name="stress" >
   <v>       9.57395532       0.03607265      -0.00287310 </v>
   <v>       0.03607265       9.45282323       0.01504184 </v>
   <v>      -0.00287311       0.01504184      31.90072749 </v>
  </varray>
  <energy>
   <i name="e_fr_energy">   -454.33558053 </i>
   <i name="e_wo_entrp">   -454.33552342 </i>
   <i name="e_0_energy">     -0.00011424 </i>
  </energy>
  <time name="totalsc">   42.67   43.16</time>
  <eigenvalues>
   <array>
    <dimension dim="1">band</dimension>
    <dimension dim="2">kpoint</dimension>
    <dimension dim="3">spin</dimension>
    <field>eigene</field>
    <field>occ</field>
    <set>
     <set comment="spin 1">
      <set comment="kpoint 1">
       <r>  -31.7368    1.0000 </r>
       <r>  -22.2709    1.0000 </r>
       <r>  -21.5050    1.0000 </r>
       <r>  -21.5024    1.0000 </r>
       <r>  -21.3962    1.0000 </r>
       <r>  -21.3944    1.0000 </r>
       <r>  -21.3910    1.0000 </r>
       <r>  -20.8737    1.0000 </r>
       <r>  -19.8762    1.0000 </r>
       <r>  -19.8719    1.0000 </r>
       <r>  -19.5525    1.0000 </r>
       <r>  -19.5486    1.0000 </r>
       <r>  -19.5394    1.0000 </r>
       <r>  -19.1908    1.0000 </r>
       <r>  -18.9025    1.0000 </r>
       <r>  -18.9002    1.0000 </r>
       <r>  -18.6484    1.0000 </r>
       <r>  -18.6432    1.0000 </r>
       <r>  -18.6360    1.0000 </r>
       <r>  -17.8848    1.0000 </r>
       <r>  -17.0227    1.0000 </r>
       <r>  -17.0206    1.0000 </r>
       <r>  -16.4789    1.0000 </r>
       <r>  -16.4600    1.0000 </r>
       <r>  -16.4521    1.0000 </r>
       <r>  -16.0493    1.0000 </r>
       <r>  -15.9962    1.0000 </r>
       <r>  -15.9931    1.0000 </r>
       <r>  -15.5037    1.0000 </r>
       <r>  -15.4979    1.0000 </r>
       <r>  -15.4924    1.0000 </r>
       <r>  -15.0862    1.0000 </r>
       <r>  -14.6328    1.0000 </r>
       <r>  -14.6266    1.0000 </r>
       <r>  -14.1523    1.0000 </r>
       <r>  -14.1479    1.0000 </r>
       <r>  -14.1378    1.0000 </r>
       <r>  -13.9644    1.0000 </r>
       <r>  -12.9941    1.0000 </r>
       <r>  -12.9893    1.0000 </r>
       <r>  -12.0279    1.0000 </r>
       <r>  -11.7687    1.0000 </r>
       <r>  -11.7647    1.0000 </r>
       <r>  -11.7631    1.0000 </r>
       <r>  -11.6900    1.0000 </r>
       <r>  -11.6880    1.0000 </r>
       <r>  -11.6522    1.0000 </r>
       <r>  -11.6505    1.0000 </r>
       <r>  -11.6495    1.0000 </r>
       <r>  -11.6445    1.0000 </r>
       <r>  -10.8069    1.0000 </r>
       <r>  -10.8017    1.0000 </r>
       <r>  -10.4199    1.0000 </r>
       <r>  -10.3341    1.0000 </r>
       <r>  -10.2910    1.0000 </r>
       <r>  -10.2894    1.0000 </r>
       <r>  -10.2696    1.0000 </r>
       <r>  -10.0768    1.0000 </r>
       <r>   -9.6851    1.0000 </r>
       <r>   -9.6833    1.0000 </r>
       <r>   -9.3259    1.0000 </r>
       <r>   -9.3253    1.0000 </r>
       <r>   -9.2986    1.0000 </r>
       <r>   -9.2810    1.0000 </r>
       <r>   -9.2793    1.0000 </r>
       <r>   -9.0475    1.0000 </r>
       <r>   -9.0043    1.0000 </r>
       <r>   -9.0029    1.0000 </r>
       <r>   -8.9560    1.0000 </r>
       <r>   -8.9482    1.0000 </r>
       <r>   -8.9415    1.0000 </r>
       <r>   -8.9387    1.0000 </r>
       <r>   -8.9184    1.0000 </r>
       <r>   -8.9176    1.0000 </r>
       <r>   -8.8873    1.0000 </r>
       <r>   -8.4347    1.0000 </r>
       <r>   -7.8024    1.0000 </r>
       <r>   -7.7941    1.0000 </r>
       <r>   -7.3239    1.0000 </r>
       <r>   -7.3208    1.0000 </r>
       <r>   -7.3100    1.0000 </r>
       <r>   -7.3090    1.0000 </r>
       <r>   -7.2997    1.0000 </r>
       <r>   -7.2921    1.0000 </r>
       <r>   -7.1624    1.0000 </r>
       <r>   -7.1607    1.0000 </r>
       <r>   -7.1544    1.0000 </r>
       <r>   -6.7508    1.0000 </r>
       <r>   -6.5095    1.0000 </r>
       <r>   -6.5073    1.0000 </r>
       <r>   -6.2713    1.0000 </r>
       <r>   -6.2466    1.0000 </r>
       <r>   -6.2420    1.0000 </r>
       <r>   -5.9287    1.0000 </r>
       <r>   -5.9164    1.0000 </r>
       <r>   -5.1958    1.0000 </r>
       <r>   -4.7656    1.0000 </r>
       <r>   -4.7632    1.0000 </r>
       <r>   -4.2709    1.0000 </r>
       <r>   -4.2672    1.0000 </r>
       <r>   -4.2608    1.0000 </r>
       <r>   -3.2139    1.0000 </r>
       <r>   -3.2126    1.0000 </r>
       <r>   -2.9155    0.0021 </r>
       <r>   -1.4652    0.0000 </r>
       <r>   -1.4604    0.0000 </r>
       <r>   -1.4569    0.0000 </r>
       <r>   -0.9913    0.0000 </r>
       <r>   -0.9866    0.0000 </r>
       <r>   -0.5424    0.0000 </r>
       <r>    0.4159    0.0000 </r>
       <r>    0.4222    0.0000 </r>
       <r>    0.4264    0.0000 </r>
       <r>    0.5615    0.0000 </r>
       <r>    0.8420    0.0000 </r>
       <r>    0.8461    0.0000 </r>
       <r>    1.2920    0.0000 </r>
       <r>    1.3399    0.0000 </r>
       <r>    1.6808    0.0000 </r>
       <r>    1.8013    0.0000 </r>
       <r>    1.8015    0.0000 </r>
       <r>    1.8021    0.0000 </r>
       <r>    1.8261    0.0000 </r>
       <r>    1.8266    0.0000 </r>
       <r>    2.0320    0.0000 </r>
       <r>    2.1718    0.0000 </r>
       <r>    2.1794    0.0000 </r>
       <r>    2.1809    0.0000 </r>
       <r>    2.3473    0.0000 </r>
       <r>    2.3477    0.0000 </r>
       <r>    2.6173    0.0000 </r>
       <r>    2.6416    0.0000 </r>
      </set>
      <set comment="kpoint 2">
       <r>  -31.7369    1.0000 </r>
       <r>  -22.1890    1.0000 </r>
       <r>  -21.8687    1.0000 </r>
       <r>  -21.6623    1.0000 </r>
       <r>  -21.4542    1.0000 </r>
       <r>  -21.0358    1.0000 </r>
       <r>  -20.8953    1.0000 </r>
       <r>  -20.7273    1.0000 </r>
       <r>  -20.4213    1.0000 </r>
       <r>  -20.1616    1.0000 </r>
       <r>  -19.7857    1.0000 </r>
       <r>  -19.6953    1.0000 </r>
       <r>  -19.3283    1.0000 </r>
       <r>  -19.2406    1.0000 </r>
       <r>  -19.0631    1.0000 </r>
       <r>  -18.5953    1.0000 </r>
       <r>  -18.4585    1.0000 </r>
       <r>  -18.1178    1.0000 </r>
       <r>  -18.0646    1.0000 </r>
       <r>  -17.5900    1.0000 </r>
       <r>  -17.5005    1.0000 </r>
       <r>  -17.3024    1.0000 </r>
       <r>  -17.2721    1.0000 </r>
       <r>  -16.8510    1.0000 </r>
       <r>  -16.6574    1.0000 </r>
       <r>  -16.1760    1.0000 </r>
       <r>  -15.9753    1.0000 </r>
       <r>  -15.8475    1.0000 </r>
       <r>  -15.2979    1.0000 </r>
       <r>  -15.1685    1.0000 </r>
       <r>  -15.1371    1.0000 </r>
       <r>  -14.8835    1.0000 </r>
       <r>  -14.7838    1.0000 </r>
       <r>  -14.4775    1.0000 </r>
       <r>  -14.4554    1.0000 </r>
       <r>  -13.7673    1.0000 </r>
       <r>  -13.7589    1.0000 </r>
       <r>  -13.1935    1.0000 </r>
       <r>  -13.0911    1.0000 </r>
       <r>  -12.9328    1.0000 </r>
       <r>  -12.9047    1.0000 </r>
       <r>  -12.5869    1.0000 </r>
       <r>  -12.5473    1.0000 </r>
       <r>  -12.3886    1.0000 </r>
       <r>  -12.0222    1.0000 </r>
       <r>  -11.6647    1.0000 </r>
       <r>  -11.4455    1.0000 </r>
       <r>  -11.2963    1.0000 </r>
       <r>  -11.1200    1.0000 </r>
       <r>  -10.9158    1.0000 </r>
       <r>  -10.8488    1.0000 </r>
       <r>  -10.5826    1.0000 </r>
       <r>  -10.5310    1.0000 </r>
       <r>  -10.2869    1.0000 </r>
       <r>  -10.2370    1.0000 </r>
       <r>  -10.1623    1.0000 </r>
       <r>  -10.0503    1.0000 </r>
       <r>   -9.8532    1.0000 </r>
       <r>   -9.8207    1.0000 </r>
       <r>   -9.6519    1.0000 </r>
       <r>   -9.6077    1.0000 </r>
       <r>   -9.5591    1.0000 </r>
       <r>   -9.5268    1.0000 </r>
       <r>   -9.3747    1.0000 </r>
       <r>   -9.3410    1.0000 </r>
       <r>   -9.2616    1.0000 </r>
       <r>   -9.1759    1.0000 </r>
       <r>   -9.0987    1.0000 </r>
       <r>   -9.0793    1.0000 </r>
       <r>   -8.8653    1.0000 </r>
       <r>   -8.7123    1.0000 </r>
       <r>   -8.6627    1.0000 </r>
       <r>   -8.5038    1.0000 </r>
       <r>   -8.4033    1.0000 </r>
       <r>   -8.2852    1.0000 </r>
       <r>   -8.1334    1.0000 </r>
       <r>   -8.0953    1.0000 </r>
       <r>   -8.0651    1.0000 </r>
       <r>   -7.9697    1.0000 </r>
       <r>   -7.8079    1.0000 </r>
       <r>   -7.6208    1.0000 </r>
       <r>   -7.3598    1.0000 </r>
       <r>   -7.3326    1.0000 </r>
       <r>   -7.2650    1.0000 </r>
       <r>   -7.1967    1.0000 </r>
       <r>   -6.9226    1.0000 </r>
       <r>   -6.8723    1.0000 </r>
       <r>   -6.6923    1.0000 </r>
       <r>   -6.5917    1.0000 </r>
       <r>   -6.3491    1.0000 </r>
       <r>   -6.1862    1.0000 </r>
       <r>   -6.0740    1.0000 </r>
       <r>   -5.9233    1.0000 </r>
       <r>   -5.7371    1.0000 </r>
       <r>   -5.6410    1.0000 </r>
       <r>   -5.3221    1.0000 </r>
       <r>   -5.1160    1.0000 </r>
       <r>   -4.9695    1.0000 </r>
       <r>   -4.9212    1.0000 </r>
       <r>   -4.2690    1.0000 </r>
       <r>   -4.1676    1.0000 </r>
       <r>   -3.3355    1.0000 </r>
       <r>   -3.1364    0.9997 </r>
       <r>   -2.8022    0.0000 </r>
       <r>   -1.5901    0.0000 </r>
       <r>   -1.4265    0.0000 </r>
       <r>   -0.8424    0.0000 </r>
       <r>   -0.8225    0.0000 </r>
       <r>   -0.7056    0.0000 </r>
       <r>   -0.6650    0.0000 </r>
       <r>   -0.1276    0.0000 </r>
       <r>   -0.0059    0.0000 </r>
       <r>    0.2970    0.0000 </r>
       <r>    0.7039    0.0000 </r>
       <r>    0.7280    0.0000 </r>
       <r>    1.0995    0.0000 </r>
       <r>    1.1760    0.0000 </r>
       <r>    1.3631    0.0000 </r>
       <r>    1.4621    0.0000 </r>
       <r>    1.5367    0.0000 </r>
       <r>    1.5724    0.0000 </r>
       <r>    1.6387    0.0000 </r>
       <r>    1.8299    0.0000 </r>
       <r>    1.9113    0.0000 </r>
       <r>    2.0344    0.0000 </r>
       <r>    2.2218    0.0000 </r>
       <r>    2.2707    0.0000 </r>
       <r>    2.3285    0.0000 </r>
       <r>    2.3386    0.0000 </r>
       <r>    2.3948    0.0000 </r>
       <r>    2.4578    0.0000 </r>
       <r>    2.7966    0.0000 </r>
      </set>
      <set comment="kpoint 3">
       <r>  -31.7369    1.0000 </r>
       <r>  -22.1889    1.0000 </r>
       <r>  -21.8691    1.0000 </r>
       <r>  -21.6612    1.0000 </r>
       <r>  -21.4549    1.0000 </r>
       <r>  -21.0348    1.0000 </r>
       <r>  -20.8987    1.0000 </r>
       <r>  -20.7255    1.0000 </r>
       <r>  -20.4202    1.0000 </r>
       <r>  -20.1594    1.0000 </r>
       <r>  -19.7875    1.0000 </r>
       <r>  -19.6989    1.0000 </r>
       <r>  -19.3245    1.0000 </r>
       <r>  -19.2437    1.0000 </r>
       <r>  -19.0611    1.0000 </r>
       <r>  -18.5928    1.0000 </r>
       <r>  -18.4609    1.0000 </r>
       <r>  -18.1221    1.0000 </r>
       <r>  -18.0608    1.0000 </r>
       <r>  -17.5904    1.0000 </r>
       <r>  -17.4980    1.0000 </r>
       <r>  -17.2987    1.0000 </r>
       <r>  -17.2770    1.0000 </r>
       <r>  -16.8529    1.0000 </r>
       <r>  -16.6598    1.0000 </r>
       <r>  -16.1681    1.0000 </r>
       <r>  -15.9766    1.0000 </r>
       <r>  -15.8474    1.0000 </r>
       <r>  -15.3002    1.0000 </r>
       <r>  -15.1707    1.0000 </r>
       <r>  -15.1363    1.0000 </r>
       <r>  -14.8865    1.0000 </r>
       <r>  -14.7832    1.0000 </r>
       <r>  -14.4757    1.0000 </r>
       <r>  -14.4563    1.0000 </r>
       <r>  -13.7641    1.0000 </r>
       <r>  -13.7580    1.0000 </r>
       <r>  -13.1958    1.0000 </r>
       <r>  -13.0906    1.0000 </r>
       <r>  -12.9358    1.0000 </r>
       <r>  -12.9023    1.0000 </r>
       <r>  -12.5873    1.0000 </r>
       <r>  -12.5440    1.0000 </r>
       <r>  -12.3897    1.0000 </r>
       <r>  -12.0209    1.0000 </r>
       <r>  -11.6615    1.0000 </r>
       <r>  -11.4470    1.0000 </r>
       <r>  -11.3005    1.0000 </r>
       <r>  -11.1228    1.0000 </r>
       <r>  -10.9139    1.0000 </r>
       <r>  -10.8536    1.0000 </r>
       <r>  -10.5837    1.0000 </r>
       <r>  -10.5325    1.0000 </r>
       <r>  -10.2843    1.0000 </r>
       <r>  -10.2368    1.0000 </r>
       <r>  -10.1600    1.0000 </r>
       <r>  -10.0449    1.0000 </r>
       <r>   -9.8532    1.0000 </r>
       <r>   -9.8227    1.0000 </r>
       <r>   -9.6540    1.0000 </r>
       <r>   -9.6076    1.0000 </r>
       <r>   -9.5546    1.0000 </r>
       <r>   -9.5277    1.0000 </r>
       <r>   -9.3724    1.0000 </r>
       <r>   -9.3397    1.0000 </r>
       <r>   -9.2553    1.0000 </r>
       <r>   -9.1760    1.0000 </r>
       <r>   -9.1030    1.0000 </r>
       <r>   -9.0823    1.0000 </r>
       <r>   -8.8649    1.0000 </r>
       <r>   -8.7134    1.0000 </r>
       <r>   -8.6656    1.0000 </r>
       <r>   -8.5017    1.0000 </r>
       <r>   -8.4065    1.0000 </r>
       <r>   -8.2863    1.0000 </r>
       <r>   -8.1359    1.0000 </r>
       <r>   -8.0936    1.0000 </r>
       <r>   -8.0708    1.0000 </r>
       <r>   -7.9730    1.0000 </r>
       <r>   -7.8054    1.0000 </r>
       <r>   -7.6122    1.0000 </r>
       <r>   -7.3608    1.0000 </r>
       <r>   -7.3358    1.0000 </r>
       <r>   -7.2604    1.0000 </r>
       <r>   -7.1971    1.0000 </r>
       <r>   -6.9172    1.0000 </r>
       <r>   -6.8736    1.0000 </r>
       <r>   -6.6951    1.0000 </r>
       <r>   -6.5903    1.0000 </r>
       <r>   -6.3447    1.0000 </r>
       <r>   -6.1900    1.0000 </r>
       <r>   -6.0750    1.0000 </r>
       <r>   -5.9235    1.0000 </r>
       <r>   -5.7395    1.0000 </r>
       <r>   -5.6408    1.0000 </r>
       <r>   -5.3220    1.0000 </r>
       <r>   -5.1152    1.0000 </r>
       <r>   -4.9692    1.0000 </r>
       <r>   -4.9230    1.0000 </r>
       <r>   -4.2671    1.0000 </r>
       <r>   -4.1689    1.0000 </r>
       <r>   -3.3332    1.0000 </r>
       <r>   -3.1361    0.9996 </r>
       <r>   -2.8034    0.0000 </r>
       <r>   -1.5918    0.0000 </r>
       <r>   -1.4281    0.0000 </r>
       <r>   -0.8399    0.0000 </r>
       <r>   -0.8193    0.0000 </r>
       <r>   -0.7057    0.0000 </r>
       <r>   -0.6685    0.0000 </r>
       <r>   -0.1258    0.0000 </r>
       <r>   -0.0058    0.0000 </r>
       <r>    0.2981    0.0000 </r>
       <r>    0.7039    0.0000 </r>
       <r>    0.7267    0.0000 </r>
       <r>    1.1001    0.0000 </r>
       <r>    1.1767    0.0000 </r>
       <r>    1.3640    0.0000 </r>
       <r>    1.4626    0.0000 </r>
       <r>    1.5369    0.0000 </r>
       <r>    1.5676    0.0000 </r>
       <r>    1.6348    0.0000 </r>
       <r>    1.8307    0.0000 </r>
       <r>    1.9124    0.0000 </r>
       <r>    2.0410    0.0000 </r>
       <r>    2.2300    0.0000 </r>
       <r>    2.2742    0.0000 </r>
       <r>    2.3355    0.0000 </r>
       <r>    2.4265    0.0000 </r>
       <r>    2.7385    0.0000 </r>
       <r>    3.2541    0.0000 </r>
       <r>    3.6155    0.0000 </r>
      </set>
      <set comment="kpoint 4">
       <r>  -31.7369    1.0000 </r>
       <r>  -22.1887    1.0000 </r>
       <r>  -21.8694    1.0000 </r>
       <r>  -21.6620    1.0000 </r>
       <r>  -21.4542    1.0000 </r>
       <r>  -21.0350    1.0000 </r>
       <r>  -20.8957    1.0000 </r>
       <r>  -20.7276    1.0000 </r>
       <r>  -20.4195    1.0000 </r>
       <r>  -20.1624    1.0000 </r>
       <r>  -19.7863    1.0000 </r>
       <r>  -19.6984    1.0000 </r>
       <r>  -19.3263    1.0000 </r>
       <r>  -19.2412    1.0000 </r>
       <r>  -19.0621    1.0000 </r>
       <r>  -18.5941    1.0000 </r>
       <r>  -18.4578    1.0000 </r>
       <r>  -18.1193    1.0000 </r>
       <r>  -18.0643    1.0000 </r>
       <r>  -17.5906    1.0000 </r>
       <r>  -17.4982    1.0000 </r>
       <r>  -17.3010    1.0000 </r>
       <r>  -17.2742    1.0000 </r>
       <r>  -16.8530    1.0000 </r>
       <r>  -16.6580    1.0000 </r>
       <r>  -16.1756    1.0000 </r>
       <r>  -15.9795    1.0000 </r>
       <r>  -15.8465    1.0000 </r>
       <r>  -15.2950    1.0000 </r>
       <r>  -15.1675    1.0000 </r>
       <r>  -15.1336    1.0000 </r>
       <r>  -14.8831    1.0000 </r>
       <r>  -14.7826    1.0000 </r>
       <r>  -14.4777    1.0000 </r>
       <r>  -14.4588    1.0000 </r>
       <r>  -13.7676    1.0000 </r>
       <r>  -13.7586    1.0000 </r>
       <r>  -13.1936    1.0000 </r>
       <r>  -13.0908    1.0000 </r>
       <r>  -12.9364    1.0000 </r>
       <r>  -12.9044    1.0000 </r>
       <r>  -12.5854    1.0000 </r>
       <r>  -12.5498    1.0000 </r>
       <r>  -12.3893    1.0000 </r>
       <r>  -12.0206    1.0000 </r>
       <r>  -11.6638    1.0000 </r>
       <r>  -11.4458    1.0000 </r>
       <r>  -11.2955    1.0000 </r>
       <r>  -11.1184    1.0000 </r>
       <r>  -10.9142    1.0000 </r>
       <r>  -10.8488    1.0000 </r>
       <r>  -10.5829    1.0000 </r>
       <r>  -10.5321    1.0000 </r>
       <r>  -10.2858    1.0000 </r>
       <r>  -10.2369    1.0000 </r>
       <r>  -10.1625    1.0000 </r>
       <r>  -10.0512    1.0000 </r>
       <r>   -9.8533    1.0000 </r>
       <r>   -9.8208    1.0000 </r>
       <r>   -9.6521    1.0000 </r>
       <r>   -9.6084    1.0000 </r>
       <r>   -9.5608    1.0000 </r>
       <r>   -9.5272    1.0000 </r>
       <r>   -9.3735    1.0000 </r>
       <r>   -9.3408    1.0000 </r>
       <r>   -9.2626    1.0000 </r>
       <r>   -9.1752    1.0000 </r>
       <r>   -9.1015    1.0000 </r>
       <r>   -9.0792    1.0000 </r>
       <r>   -8.8647    1.0000 </r>
       <r>   -8.7115    1.0000 </r>
       <r>   -8.6630    1.0000 </r>
       <r>   -8.5040    1.0000 </r>
       <r>   -8.4014    1.0000 </r>
       <r>   -8.2818    1.0000 </r>
       <r>   -8.1324    1.0000 </r>
       <r>   -8.0927    1.0000 </r>
       <r>   -8.0639    1.0000 </r>
       <r>   -7.9714    1.0000 </r>
       <r>   -7.8078    1.0000 </r>
       <r>   -7.6204    1.0000 </r>
       <r>   -7.3607    1.0000 </r>
       <r>   -7.3370    1.0000 </r>
       <r>   -7.2683    1.0000 </r>
       <r>   -7.2010    1.0000 </r>
       <r>   -6.9211    1.0000 </r>
       <r>   -6.8716    1.0000 </r>
       <r>   -6.6881    1.0000 </r>
       <r>   -6.5921    1.0000 </r>
       <r>   -6.3535    1.0000 </r>
       <r>   -6.1831    1.0000 </r>
       <r>   -6.0712    1.0000 </r>
       <r>   -5.9224    1.0000 </r>
       <r>   -5.7382    1.0000 </r>
       <r>   -5.6418    1.0000 </r>
       <r>   -5.3214    1.0000 </r>
       <r>   -5.1146    1.0000 </r>
       <r>   -4.9703    1.0000 </r>
       <r>   -4.9206    1.0000 </r>
       <r>   -4.2707    1.0000 </r>
       <r>   -4.1675    1.0000 </r>
       <r>   -3.3357    1.0000 </r>
       <r>   -3.1360    0.9996 </r>
       <r>   -2.8033    0.0000 </r>
       <r>   -1.5898    0.0000 </r>
       <r>   -1.4232    0.0000 </r>
       <r>   -0.8433    0.0000 </r>
       <r>   -0.8210    0.0000 </r>
       <r>   -0.7043    0.0000 </r>
       <r>   -0.6688    0.0000 </r>
       <r>   -0.1278    0.0000 </r>
       <r>   -0.0052    0.0000 </r>
       <r>    0.2966    0.0000 </r>
       <r>    0.7042    0.0000 </r>
       <r>    0.7254    0.0000 </r>
       <r>    1.1002    0.0000 </r>
       <r>    1.1769    0.0000 </r>
       <r>    1.3660    0.0000 </r>
       <r>    1.4640    0.0000 </r>
       <r>    1.5617    0.0000 </r>
       <r>    1.5783    0.0000 </r>
       <r>    1.7502    0.0000 </r>
       <r>    1.8311    0.0000 </r>
       <r>    2.1788    0.0000 </r>
       <r>    2.3349    0.0000 </r>
       <r>    2.3966    0.0000 </r>
       <r>    2.6152    0.0000 </r>
       <r>    2.7874    0.0000 </r>
       <r>    2.8457    0.0000 </r>
       <r>    3.2033    0.0000 </r>
       <r>    3.5943    0.0000 </r>
       <r>    4.1733    0.0000 </r>
      </set>
      <set comment="kpoint 5">
       <r>  -31.7369    1.0000 </r>
       <r>  -22.0808    1.0000 </r>
       <r>  -22.0067    1.0000 </r>
       <r>  -21.8024    1.0000 </r>
       <r>  -21.1735    1.0000 </r>
       <r>  -21.1486    1.0000 </r>
       <r>  -20.8679    1.0000 </r>
       <r>  -20.4142    1.0000 </r>
       <r>  -20.3362    1.0000 </r>
       <r>  -20.1733    1.0000 </r>
       <r>  -20.1501    1.0000 </r>
       <r>  -20.1413    1.0000 </r>
       <r>  -19.5648    1.0000 </r>
       <r>  -18.8253    1.0000 </r>
       <r>  -18.6778    1.0000 </r>
       <r>  -18.3732    1.0000 </r>
       <r>  -18.3507    1.0000 </r>
       <r>  -18.3314    1.0000 </r>
       <r>  -17.9315    1.0000 </r>
       <r>  -17.8012    1.0000 </r>
       <r>  -17.6048    1.0000 </r>
       <r>  -17.2566    1.0000 </r>
       <r>  -17.1539    1.0000 </r>
       <r>  -17.1208    1.0000 </r>
       <r>  -16.5421    1.0000 </r>
       <r>  -16.4351    1.0000 </r>
       <r>  -16.2826    1.0000 </r>
       <r>  -15.8111    1.0000 </r>
       <r>  -15.6305    1.0000 </r>
       <r>  -15.1729    1.0000 </r>
       <r>  -14.9683    1.0000 </r>
       <r>  -14.6511    1.0000 </r>
       <r>  -13.9585    1.0000 </r>
       <r>  -13.9413    1.0000 </r>
       <r>  -13.9268    1.0000 </r>
       <r>  -13.8746    1.0000 </r>
       <r>  -13.8661    1.0000 </r>
       <r>  -13.7903    1.0000 </r>
       <r>  -13.6729    1.0000 </r>
       <r>  -13.4950    1.0000 </r>
       <r>  -13.0366    1.0000 </r>
       <r>  -12.4717    1.0000 </r>
       <r>  -12.2554    1.0000 </r>
       <r>  -12.0645    1.0000 </r>
       <r>  -11.8235    1.0000 </r>
       <r>  -11.7736    1.0000 </r>
       <r>  -11.5657    1.0000 </r>
       <r>  -11.5452    1.0000 </r>
       <r>  -11.5232    1.0000 </r>
       <r>  -10.9306    1.0000 </r>
       <r>  -10.8167    1.0000 </r>
       <r>  -10.5298    1.0000 </r>
       <r>  -10.2070    1.0000 </r>
       <r>  -10.2020    1.0000 </r>
       <r>  -10.1963    1.0000 </r>
       <r>  -10.0952    1.0000 </r>
       <r>  -10.0512    1.0000 </r>
       <r>  -10.0212    1.0000 </r>
       <r>   -9.9019    1.0000 </r>
       <r>   -9.7528    1.0000 </r>
       <r>   -9.7479    1.0000 </r>
       <r>   -9.5634    1.0000 </r>
       <r>   -9.4415    1.0000 </r>
       <r>   -9.4064    1.0000 </r>
       <r>   -9.2013    1.0000 </r>
       <r>   -9.0451    1.0000 </r>
       <r>   -9.0339    1.0000 </r>
       <r>   -8.9015    1.0000 </r>
       <r>   -8.8860    1.0000 </r>
       <r>   -8.6885    1.0000 </r>
       <r>   -8.6429    1.0000 </r>
       <r>   -8.6298    1.0000 </r>
       <r>   -8.6192    1.0000 </r>
       <r>   -8.5833    1.0000 </r>
       <r>   -8.3734    1.0000 </r>
       <r>   -8.2518    1.0000 </r>
       <r>   -8.1616    1.0000 </r>
       <r>   -8.0369    1.0000 </r>
       <r>   -7.9823    1.0000 </r>
       <r>   -7.8807    1.0000 </r>
       <r>   -7.8586    1.0000 </r>
       <r>   -7.8526    1.0000 </r>
       <r>   -7.2242    1.0000 </r>
       <r>   -7.1871    1.0000 </r>
       <r>   -7.1255    1.0000 </r>
       <r>   -6.8821    1.0000 </r>
       <r>   -6.7192    1.0000 </r>
       <r>   -6.6154    1.0000 </r>
       <r>   -6.4633    1.0000 </r>
       <r>   -6.2650    1.0000 </r>
       <r>   -6.1057    1.0000 </r>
       <r>   -5.9169    1.0000 </r>
       <r>   -5.9130    1.0000 </r>
       <r>   -5.8937    1.0000 </r>
       <r>   -5.4518    1.0000 </r>
       <r>   -5.4265    1.0000 </r>
       <r>   -5.1230    1.0000 </r>
       <r>   -5.0141    1.0000 </r>
       <r>   -4.9823    1.0000 </r>
       <r>   -4.9533    1.0000 </r>
       <r>   -3.7299    1.0000 </r>
       <r>   -3.4587    1.0000 </r>
       <r>   -3.2781    1.0000 </r>
       <r>   -2.3879    0.0000 </r>
       <r>   -2.2234    0.0000 </r>
       <r>   -0.9299    0.0000 </r>
       <r>   -0.8825    0.0000 </r>
       <r>   -0.8702    0.0000 </r>
       <r>   -0.5351    0.0000 </r>
       <r>   -0.2641    0.0000 </r>
       <r>   -0.2115    0.0000 </r>
       <r>    0.2516    0.0000 </r>
       <r>    0.2564    0.0000 </r>
       <r>    0.2622    0.0000 </r>
       <r>    0.6035    0.0000 </r>
       <r>    0.7926    0.0000 </r>
       <r>    0.9469    0.0000 </r>
       <r>    0.9737    0.0000 </r>
       <r>    1.0614    0.0000 </r>
       <r>    1.7343    0.0000 </r>
       <r>    1.7423    0.0000 </r>
       <r>    1.7674    0.0000 </r>
       <r>    1.8263    0.0000 </r>
       <r>    2.1168    0.0000 </r>
       <r>    2.1227    0.0000 </r>
       <r>    2.1277    0.0000 </r>
       <r>    2.2459    0.0000 </r>
       <r>    2.2472    0.0000 </r>
       <r>    2.3611    0.0000 </r>
       <r>    2.9997    0.0000 </r>
       <r>    3.0106    0.0000 </r>
       <r>    3.0340    0.0000 </r>
      </set>
     </set>
    </set>
   </array>
  </eigenvalues>
  <separator name="orbital magnetization" >
   <v name="MAGDIPOLOUT">      0.00000000      0.00000000      0.00000000</v>
  </separator>
  <dos>
   <i name="efermi">     -3.01650176 </i>
   <total>
    <array>
     <dimension dim="1">gridpoints</dimension>
     <dimension dim="2">spin</dimension>
     <field>energy</field>
     <field>total</field>
     <field>integrated</field>
     <set>
      <set comment="spin 1">
       <r>   -33.5325     0.0000     0.0000 </r>
       <r>   -33.4008     0.0000     0.0000 </r>
       <r>   -33.2691     0.0000     0.0000 </r>
       <r>   -33.1374     0.0000     0.0000 </r>
       <r>   -33.0058     0.0000     0.0000 </r>
       <r>   -32.8741     0.0000     0.0000 </r>
       <r>   -32.7424     0.0000     0.0000 </r>
       <r>   -32.6108     0.0000     0.0000 </r>
       <r>   -32.4791     0.0000     0.0000 </r>
       <r>   -32.3474     0.0000     0.0000 </r>
       <r>   -32.2158     0.0000     0.0000 </r>
       <r>   -32.0841     0.0000     0.0000 </r>
       <r>   -31.9524     0.0000     0.0000 </r>
       <r>   -31.8207     0.1346     0.0177 </r>
       <r>   -31.6891    13.7175     1.8239 </r>
       <r>   -31.5574     1.3372     2.0000 </r>
       <r>   -31.4257     0.0000     2.0000 </r>
       <r>   -31.2941     0.0000     2.0000 </r>
       <r>   -31.1624     0.0000     2.0000 </r>
       <r>   -31.0307     0.0000     2.0000 </r>
       <r>   -30.8990     0.0000     2.0000 </r>
       <r>   -30.7674     0.0000     2.0000 </r>
       <r>   -30.6357     0.0000     2.0000 </r>
       <r>   -30.5040     0.0000     2.0000 </r>
       <r>   -30.3724     0.0000     2.0000 </r>
       <r>   -30.2407     0.0000     2.0000 </r>
       <r>   -30.1090     0.0000     2.0000 </r>
       <r>   -29.9773     0.0000     2.0000 </r>
       <r>   -29.8457     0.0000     2.0000 </r>
       <r>   -29.7140     0.0000     2.0000 </r>
       <r>   -29.5823     0.0000     2.0000 </r>
       <r>   -29.4507     0.0000     2.0000 </r>
       <r>   -29.3190     0.0000     2.0000 </r>
       <r>   -29.1873     0.0000     2.0000 </r>
       <r>   -29.0556     0.0000     2.0000 </r>
       <r>   -28.9240     0.0000     2.0000 </r>
       <r>   -28.7923     0.0000     2.0000 </r>
       <r>   -28.6606     0.0000     2.0000 </r>
       <r>   -28.5290     0.0000     2.0000 </r>
       <r>   -28.3973     0.0000     2.0000 </r>
       <r>   -28.2656     0.0000     2.0000 </r>
       <r>   -28.1340     0.0000     2.0000 </r>
       <r>   -28.0023     0.0000     2.0000 </r>
       <r>   -27.8706     0.0000     2.0000 </r>
       <r>   -27.7389     0.0000     2.0000 </r>
       <r>   -27.6073     0.0000     2.0000 </r>
       <r>   -27.4756     0.0000     2.0000 </r>
       <r>   -27.3439     0.0000     2.0000 </r>
       <r>   -27.2123     0.0000     2.0000 </r>
       <r>   -27.0806     0.0000     2.0000 </r>
       <r>   -26.9489     0.0000     2.0000 </r>
       <r>   -26.8172     0.0000     2.0000 </r>
       <r>   -26.6856     0.0000     2.0000 </r>
       <r>   -26.5539     0.0000     2.0000 </r>
       <r>   -26.4222     0.0000     2.0000 </r>
       <r>   -26.2906     0.0000     2.0000 </r>
       <r>   -26.1589     0.0000     2.0000 </r>
       <r>   -26.0272     0.0000     2.0000 </r>
       <r>   -25.8955     0.0000     2.0000 </r>
       <r>   -25.7639     0.0000     2.0000 </r>
       <r>   -25.6322     0.0000     2.0000 </r>
       <r>   -25.5005     0.0000     2.0000 </r>
       <r>   -25.3689     0.0000     2.0000 </r>
       <r>   -25.2372     0.0000     2.0000 </r>
       <r>   -25.1055     0.0000     2.0000 </r>
       <r>   -24.9738     0.0000     2.0000 </r>
       <r>   -24.8422     0.0000     2.0000 </r>
       <r>   -24.7105     0.0000     2.0000 </r>
       <r>   -24.5788     0.0000     2.0000 </r>
       <r>   -24.4472     0.0000     2.0000 </r>
       <r>   -24.3155     0.0000     2.0000 </r>
       <r>   -24.1838     0.0000     2.0000 </r>
       <r>   -24.0522     0.0000     2.0000 </r>
       <r>   -23.9205     0.0000     2.0000 </r>
       <r>   -23.7888     0.0000     2.0000 </r>
       <r>   -23.6571     0.0000     2.0000 </r>
       <r>   -23.5255     0.0000     2.0000 </r>
       <r>   -23.3938     0.0000     2.0000 </r>
       <r>   -23.2621     0.0000     2.0000 </r>
       <r>   -23.1305     0.0000     2.0000 </r>
       <r>   -22.9988     0.0000     2.0000 </r>
       <r>   -22.8671     0.0000     2.0000 </r>
       <r>   -22.7354     0.0000     2.0000 </r>
       <r>   -22.6038     0.0000     2.0000 </r>
       <r>   -22.4721     0.0000     2.0000 </r>
       <r>   -22.3404     0.0417     2.0055 </r>
       <r>   -22.2088     4.4859     2.5962 </r>
       <r>   -22.0771     9.1853     3.8056 </r>
       <r>   -21.9454     4.8675     4.4465 </r>
       <r>   -21.8137    10.7797     5.8659 </r>
       <r>   -21.6821     5.5774     6.6003 </r>
       <r>   -21.5504     7.5963     7.6005 </r>
       <r>   -21.4187    12.7706     9.2820 </r>
       <r>   -21.2871     5.4491     9.9995 </r>
       <r>   -21.1554     3.7863    10.4980 </r>
       <r>   -21.0237     9.3208    11.7253 </r>
       <r>   -20.8921    10.6910    13.1330 </r>
       <r>   -20.7604    10.0004    14.4497 </r>
       <r>   -20.6287     8.3703    15.5519 </r>
       <r>   -20.4970     0.2127    15.5799 </r>
       <r>   -20.3654    13.1188    17.3072 </r>
       <r>   -20.2337     3.9653    17.8293 </r>
       <r>   -20.1020    18.5644    20.2737 </r>
       <r>   -19.9704     1.3075    20.4459 </r>
       <r>   -19.8387     3.5383    20.9118 </r>
       <r>   -19.7070    13.8227    22.7318 </r>
       <r>   -19.5753     8.6241    23.8674 </r>
       <r>   -19.4437     6.0639    24.6658 </r>
       <r>   -19.3120     6.9044    25.5749 </r>
       <r>   -19.1803    13.9818    27.4159 </r>
       <r>   -19.0487     7.6217    28.4195 </r>
       <r>   -18.9170     4.6910    29.0372 </r>
       <r>   -18.7853     5.1918    29.7208 </r>
       <r>   -18.6536     5.3537    30.4257 </r>
       <r>   -18.5220    13.8135    32.2445 </r>
       <r>   -18.3903    11.3593    33.7402 </r>
       <r>   -18.2586     8.6398    34.8778 </r>
       <r>   -18.1270     4.6926    35.4957 </r>
       <r>   -17.9953    15.4844    37.5346 </r>
       <r>   -17.8636     4.7967    38.1661 </r>
       <r>   -17.7319     3.7178    38.6557 </r>
       <r>   -17.6003     5.9060    39.4333 </r>
       <r>   -17.4686    15.8171    41.5160 </r>
       <r>   -17.3369     3.9674    42.0384 </r>
       <r>   -17.2053    21.3838    44.8540 </r>
       <r>   -17.0736     6.9091    45.7637 </r>
       <r>   -16.9419     3.4984    46.2244 </r>
       <r>   -16.8103     8.9230    47.3993 </r>
       <r>   -16.6786     4.0647    47.9345 </r>
       <r>   -16.5469     8.8116    49.0947 </r>
       <r>   -16.4152     8.7979    50.2531 </r>
       <r>   -16.2836     3.1153    50.6633 </r>
       <r>   -16.1519     9.0636    51.8567 </r>
       <r>   -16.0202     6.0423    52.6523 </r>
       <r>   -15.8886    13.1260    54.3806 </r>
       <r>   -15.7569    12.0336    55.9651 </r>
       <r>   -15.6252     2.1557    56.2490 </r>
       <r>   -15.4935     4.2694    56.8111 </r>
       <r>   -15.3619     2.6329    57.1578 </r>
       <r>   -15.2302    10.1220    58.4906 </r>
       <r>   -15.0985    22.1084    61.4016 </r>
       <r>   -14.9669     4.7003    62.0205 </r>
       <r>   -14.8352    11.5432    63.5404 </r>
       <r>   -14.7035    10.4151    64.9118 </r>
       <r>   -14.5718     6.4035    65.7549 </r>
       <r>   -14.4402    15.6845    67.8201 </r>
       <r>   -14.3085     4.7414    68.4444 </r>
       <r>   -14.1768     0.9875    68.5745 </r>
       <r>   -14.0452     4.1129    69.1160 </r>
       <r>   -13.9135    10.1476    70.4522 </r>
       <r>   -13.7818    16.2770    72.5954 </r>
       <r>   -13.6501    18.2115    74.9933 </r>
       <r>   -13.5185     1.7510    75.2238 </r>
       <r>   -13.3868     2.5156    75.5551 </r>
       <r>   -13.2551     0.4370    75.6126 </r>
       <r>   -13.1235    11.2903    77.0992 </r>
       <r>   -12.9918    13.8316    78.9204 </r>
       <r>   -12.8601    20.4289    81.6103 </r>
       <r>   -12.7285     1.2721    81.7778 </r>
       <r>   -12.5968     4.7181    82.3991 </r>
       <r>   -12.4651    17.5246    84.7065 </r>
       <r>   -12.3334    10.9756    86.1517 </r>
       <r>   -12.2018     3.6924    86.6379 </r>
       <r>   -12.0701     2.7367    86.9982 </r>
       <r>   -11.9384    12.5660    88.6528 </r>
       <r>   -11.8068     3.6161    89.1290 </r>
       <r>   -11.6751    15.7928    91.2084 </r>
       <r>   -11.5434    17.9789    93.5757 </r>
       <r>   -11.4117    13.3627    95.3352 </r>
       <r>   -11.2801     8.6413    96.4730 </r>
       <r>   -11.1484     5.3289    97.1747 </r>
       <r>   -11.0167     7.9833    98.2258 </r>
       <r>   -10.8851    12.8848    99.9224 </r>
       <r>   -10.7534    17.0566   102.1682 </r>
       <r>   -10.6217     1.8730   102.4149 </r>
       <r>   -10.4900    20.5212   105.1169 </r>
       <r>   -10.3584     3.9830   105.6414 </r>
       <r>   -10.2267    24.4258   108.8575 </r>
       <r>   -10.0950    25.4648   112.2105 </r>
       <r>    -9.9634    18.5255   114.6498 </r>
       <r>    -9.8317    14.7788   116.5957 </r>
       <r>    -9.7000    17.2681   118.8694 </r>
       <r>    -9.5683    27.3253   122.4674 </r>
       <r>    -9.4367    21.2767   125.2689 </r>
       <r>    -9.3050    27.2441   128.8561 </r>
       <r>    -9.1733    23.5970   131.9632 </r>
       <r>    -9.0417    28.3984   135.7024 </r>
       <r>    -8.9100    20.3448   138.3812 </r>
       <r>    -8.7783    17.6191   140.7012 </r>
       <r>    -8.6467    22.9441   143.7222 </r>
       <r>    -8.5150    17.5959   146.0391 </r>
       <r>    -8.3833    16.6285   148.2286 </r>
       <r>    -8.2516    15.0632   150.2120 </r>
       <r>    -8.1200    16.0760   152.3287 </r>
       <r>    -7.9883    28.7373   156.1126 </r>
       <r>    -7.8566    16.0844   158.2305 </r>
       <r>    -7.7250    16.6573   160.4237 </r>
       <r>    -7.5933     7.7977   161.4505 </r>
       <r>    -7.4616     2.5091   161.7808 </r>
       <r>    -7.3299    17.0446   164.0251 </r>
       <r>    -7.1983    32.7885   168.3424 </r>
       <r>    -7.0666    15.7780   170.4199 </r>
       <r>    -6.9349     4.2471   170.9791 </r>
       <r>    -6.8033    19.4194   173.5361 </r>
       <r>    -6.6716    12.4500   175.1754 </r>
       <r>    -6.5399    16.2764   177.3185 </r>
       <r>    -6.4082     7.1398   178.2586 </r>
       <r>    -6.2766    12.3072   179.8791 </r>
       <r>    -6.1449    15.5457   181.9261 </r>
       <r>    -6.0132    13.6907   183.7287 </r>
       <r>    -5.8816    19.9541   186.3561 </r>
       <r>    -5.7499     7.8135   187.3849 </r>
       <r>    -5.6182    13.8734   189.2116 </r>
       <r>    -5.4865     3.3121   189.6477 </r>
       <r>    -5.3549     7.7388   190.6667 </r>
       <r>    -5.2232     8.8003   191.8255 </r>
       <r>    -5.0915    11.7051   193.3667 </r>
       <r>    -4.9599    17.8007   195.7105 </r>
       <r>    -4.8282    15.7778   197.7880 </r>
       <r>    -4.6965     3.2051   198.2100 </r>
       <r>    -4.5649     0.0928   198.2222 </r>
       <r>    -4.4332     0.0000   198.2222 </r>
       <r>    -4.3015     2.6255   198.5679 </r>
       <r>    -4.1698    17.3724   200.8554 </r>
       <r>    -4.0382     5.3165   201.5554 </r>
       <r>    -3.9065     0.0012   201.5556 </r>
       <r>    -3.7748     0.3444   201.6009 </r>
       <r>    -3.6432     3.0072   201.9969 </r>
       <r>    -3.5115     0.2519   202.0300 </r>
       <r>    -3.3798     4.1402   202.5752 </r>
       <r>    -3.2481    12.3204   204.1974 </r>
       <r>    -3.1165    10.7546   205.6135 </r>
       <r>    -2.9848     2.9775   206.0055 </r>
       <r>    -2.8531     2.3705   206.3177 </r>
       <r>    -2.7215     9.2943   207.5415 </r>
       <r>    -2.5898     0.1070   207.5556 </r>
       <r>    -2.4581     0.0794   207.5660 </r>
       <r>    -2.3264     3.1634   207.9825 </r>
       <r>    -2.1948     2.8030   208.3516 </r>
       <r>    -2.0631     0.7050   208.4444 </r>
       <r>    -1.9314     0.0000   208.4444 </r>
       <r>    -1.7998     0.0000   208.4444 </r>
       <r>    -1.6681     0.1437   208.4634 </r>
       <r>    -1.5364     9.4394   209.7063 </r>
       <r>    -1.4048    12.6603   211.3733 </r>
       <r>    -1.2731     3.0722   211.7778 </r>
       <r>    -1.1414     0.0001   211.7778 </r>
       <r>    -1.0097     0.9821   211.9071 </r>
       <r>    -0.8781    10.8612   213.3372 </r>
       <r>    -0.7464    23.0622   216.3738 </r>
       <r>    -0.6147    18.4327   218.8009 </r>
       <r>    -0.4831     5.4149   219.5139 </r>
       <r>    -0.3514     0.3397   219.5586 </r>
       <r>    -0.2197     4.4205   220.1406 </r>
       <r>    -0.0880    11.1671   221.6110 </r>
       <r>     0.0436    10.5632   223.0019 </r>
       <r>     0.1753     0.9449   223.1263 </r>
       <r>     0.3070    15.3730   225.1505 </r>
       <r>     0.4386     8.2332   226.2345 </r>
       <r>     0.5703     3.1904   226.6546 </r>
       <r>     0.7020    10.7638   228.0719 </r>
       <r>     0.8337    17.2048   230.3373 </r>
       <r>     0.9653     6.2409   231.1590 </r>
       <r>     1.0970    10.7061   232.5687 </r>
       <r>     1.2287    15.2835   234.5811 </r>
       <r>     1.3603     8.1278   235.6513 </r>
       <r>     1.4920    14.9656   237.6218 </r>
       <r>     1.6237    22.9762   240.6471 </r>
       <r>     1.7554    15.4079   242.6759 </r>
       <r>     1.8870    27.6705   246.3193 </r>
       <r>     2.0187     8.6183   247.4541 </r>
       <r>     2.1504    15.7464   249.5274 </r>
       <r>     2.2820    25.8864   252.9359 </r>
       <r>     2.4137    29.0222   256.7573 </r>
       <r>     2.5454     7.8492   257.7908 </r>
       <r>     2.6770     6.3164   258.6225 </r>
       <r>     2.8087     8.7247   259.7713 </r>
       <r>     2.9404     5.3507   260.4758 </r>
       <r>     3.0721     9.2051   261.6879 </r>
       <r>     3.2037     2.6472   262.0364 </r>
       <r>     3.3354     4.7498   262.6619 </r>
       <r>     3.4671     0.0372   262.6667 </r>
       <r>     3.5987     2.9296   263.0525 </r>
       <r>     3.7304     3.8185   263.5553 </r>
       <r>     3.8621     0.0021   263.5556 </r>
       <r>     3.9938     0.0000   263.5556 </r>
       <r>     4.1254     0.2965   263.5946 </r>
       <r>     4.2571     3.0489   263.9960 </r>
       <r>     4.3888     0.0300   264.0000 </r>
       <r>     4.5204     0.0000   264.0000 </r>
       <r>     4.6521     0.0000   264.0000 </r>
       <r>     4.7838     0.0000   264.0000 </r>
       <r>     4.9155     0.0000   264.0000 </r>
       <r>     5.0471     0.0000   264.0000 </r>
       <r>     5.1788     0.0000   264.0000 </r>
       <r>     5.3105     0.0000   264.0000 </r>
       <r>     5.4421     0.0000   264.0000 </r>
       <r>     5.5738     0.0000   264.0000 </r>
       <r>     5.7055     0.0000   264.0000 </r>
       <r>     5.8372     0.0000   264.0000 </r>
       <r>     5.9688     0.0000   264.0000 </r>
      </set>
     </set>
    </array>
   </total>
  </dos>
 </calculation>
 <structure name="finalpos" >
  <crystal>
   <varray name="basis" >
    <v>      12.30000019       0.00000000       0.00000000 </v>
    <v>       6.15000080      10.65211222       0.00000000 </v>
    <v>       0.00000000       0.00000000      20.00000000 </v>
   </varray>
   <i name="volume">   2620.41964732 </i>
   <varray name="rec_basis" >
    <v>       0.08130081      -0.04693905       0.00000000 </v>
    <v>       0.00000000       0.09387809       0.00000000 </v>
    <v>       0.00000000       0.00000000       0.05000000 </v>
   </varray>
  </crystal>
  <varray name="positions" >
   <v>       0.00000000       0.00000000       0.41799748 </v>
   <v>       0.20000000       0.00000000       0.41799748 </v>
   <v>       0.40000000       0.00000000       0.41799748 </v>
   <v>       0.60000000       0.00081301       0.41799748 </v>
   <v>       0.80000000       0.00000000       0.41799748 </v>
   <v>       0.00000000       0.20000000       0.41799748 </v>
   <v>       0.20000000       0.20000000       0.41799748 </v>
   <v>       0.40000000       0.20000000       0.41799748 </v>
   <v>       0.60000000       0.20000000       0.41799748 </v>
   <v>       0.80000000       0.20000000       0.41799748 </v>
   <v>       0.00000000       0.40000000       0.41799748 </v>
   <v>       0.20000000       0.40000000       0.41799748 </v>
   <v>       0.40000000       0.40000000       0.41799748 </v>
   <v>       0.60000000       0.40000000       0.41799748 </v>
   <v>       0.80000000       0.40000000       0.41799748 </v>
   <v>       0.00000000       0.60000000       0.41799748 </v>
   <v>       0.20000000       0.60000000       0.41799748 </v>
   <v>       0.40000000       0.60000000       0.41799748 </v>
   <v>       0.60000000       0.60000000       0.41799748 </v>
   <v>       0.80000000       0.60000000       0.41799748 </v>
   <v>       0.00000000       0.80000000       0.41799748 </v>
   <v>       0.20000000       0.80000000       0.41799748 </v>
   <v>       0.40000000       0.80000000       0.41799748 </v>
   <v>       0.60000000       0.80000000       0.41799748 </v>
   <v>       0.80000000       0.80000000       0.41799748 </v>
   <v>       0.06666667       0.06666660       0.41800609 </v>
   <v>       0.26666667       0.06666660       0.41800609 </v>
   <v>       0.46666667       0.06666660       0.41800609 </v>
   <v>       0.66666667       0.06666660       0.41800609 </v>
   <v>       0.86666667       0.06666660       0.41800609 </v>
   <v>       0.06666667       0.26666660       0.41800609 </v>
   <v>       0.26666667       0.26666660       0.41800609 </v>
   <v>       0.46666667       0.26666660       0.41800609 </v>
   <v>       0.66666667       0.26666660       0.41800609 </v>
   <v>       0.86666667       0.26666660       0.41800609 </v>
   <v>       0.06666667       0.46666660       0.41800609 </v>
   <v>       0.26666667       0.46666660       0.41800609 </v>
   <v>       0.46666667       0.46666660       0.41800609 </v>
   <v>       0.66666667       0.46666660       0.41800609 </v>
   <v>       0.86666667       0.46666660       0.41800609 </v>
   <v>       0.06666667       0.66666660       0.41800609 </v>
   <v>       0.26666667       0.66666660       0.41800609 </v>
   <v>       0.46666667       0.66666660       0.41800609 </v>
   <v>       0.66666667       0.66666660       0.41800609 </v>
   <v>       0.86666667       0.66666660       0.41800609 </v>
   <v>       0.06666667       0.86666660       0.41800609 </v>
   <v>       0.26666667       0.86666660       0.41800609 </v>
   <v>       0.46666667       0.86666660       0.41800609 </v>
   <v>       0.66666667       0.86666660       0.41800609 </v>
   <v>       0.86666667       0.86666660       0.41800609 </v>
   <v>       0.40000000       0.40000000       0.46800609 </v>
  </varray>
  <varray name="velocities" >
   <v>       0.00000000       0.00000000       0.00000000 </v>
   <v>       0.00000000       0.00000000       0.00000000 </v>
   <v>       0.00000000       0.00000000       0.00000000 </v>
   <v>       0.00000000       0.00000000       0.00000000 </v>
   <v>       0.00000000       0.00000000       0.00000000 </v>
   <v>       0.00000000       0.00000000       0.00000000 </v>
   <v>       0.00000000       0.00000000       0.00000000 </v>
   <v>       0.00000000       0.00000000       0.00000000 </v>
   <v>       0.00000000       0.00000000       0.00000000 </v>
   <v>       0.00000000       0.00000000       0.00000000 </v>
   <v>       0.00000000       0.00000000       0.00000000 </v>
   <v>       0.00000000       0.00000000       0.00000000 </v>
   <v>       0.00000000       0.00000000       0.00000000 </v>
   <v>       0.00000000       0.00000000       0.00000000 </v>
   <v>       0.00000000       0.00000000       0.00000000 </v>
   <v>       0.00000000       0.00000000       0.00000000 </v>
   <v>       0.00000000       0.00000000       0.00000000 </v>
   <v>       0.00000000       0.00000000       0.00000000 </v>
   <v>       0.00000000       0.00000000       0.00000000 </v>
   <v>       0.00000000       0.00000000       0.00000000 </v>
   <v>       0.00000000       0.00000000       0.00000000 </v>
   <v>       0.00000000       0.00000000       0.00000000 </v>
   <v>       0.00000000       0.00000000       0.00000000 </v>
   <v>       0.00000000       0.00000000       0.00000000 </v>
   <v>       0.00000000       0.00000000       0.00000000 </v>
   <v>       0.00000000       0.00000000       0.00000000 </v>
   <v>       0.00000000       0.00000000       0.00000000 </v>
   <v>       0.00000000       0.00000000       0.00000000 </v>
   <v>       0.00000000       0.00000000       0.00000000 </v>
   <v>       0.00000000       0.00000000       0.00000000 </v>
   <v>       0.00000000       0.00000000       0.00000000 </v>
   <v>       0.00000000       0.00000000       0.00000000 </v>
   <v>       0.00000000       0.00000000       0.00000000 </v>
   <v>       0.00000000       0.00000000       0.00000000 </v>
   <v>       0.00000000       0.00000000       0.00000000 </v>
   <v>       0.00000000       0.00000000       0.00000000 </v>
   <v>       0.00000000       0.00000000       0.00000000 </v>
   <v>       0.00000000       0.00000000       0.00000000 </v>
   <v>       0.00000000       0.00000000       0.00000000 </v>
   <v>       0.00000000       0.00000000       0.00000000 </v>
   <v>       0.00000000       0.00000000       0.00000000 </v>
   <v>       0.00000000       0.00000000       0.00000000 </v>
   <v>       0.00000000       0.00000000       0.00000000 </v>
   <v>       0.00000000       0.00000000       0.00000000 </v>
   <v>       0.00000000       0.00000000       0.00000000 </v>
   <v>       0.00000000       0.00000000       0.00000000 </v>
   <v>       0.00000000       0.00000000       0.00000000 </v>
   <v>       0.00000000       0.00000000       0.00000000 </v>
   <v>       0.00000000       0.00000000       0.00000000 </v>
   <v>       0.00000000       0.00000000       0.00000000 </v>
   <v>       0.00000000       0.00000000       0.00000000 </v>
  </varray>
 </structure>
</modeling>
