  51  51   0   0
  0.5138078E+02  0.1230000E-08  0.1230000E-08  0.2000000E-08  0.5000000E-15
  1.000000000000000E-004
  CAR 
                                         
      5.95230232    -33.53436153  301     -3.01693681      1.00000000
    -33.534  0.0000E+00  0.0000E+00
    -33.403  0.0000E+00  0.0000E+00
    -33.271  0.0000E+00  0.0000E+00
    -33.139  0.0000E+00  0.0000E+00
    -33.008  0.0000E+00  0.0000E+00
    -32.876  0.0000E+00  0.0000E+00
    -32.745  0.0000E+00  0.0000E+00
    -32.613  0.0000E+00  0.0000E+00
    -32.481  0.0000E+00  0.0000E+00
    -32.350  0.0000E+00  0.0000E+00
    -32.218  0.0000E+00  0.0000E+00
    -32.087  0.0000E+00  0.0000E+00
    -31.955  0.8407E-08  0.1107E-08
    -31.823  0.1350E+00  0.1777E-01
    -31.692  0.1372E+02  0.1824E+01
    -31.560  0.1339E+01  0.2000E+01
    -31.428  0.2940E-05  0.2000E+01
    -31.297  0.0000E+00  0.2000E+01
    -31.165  0.0000E+00  0.2000E+01
    -31.034  0.0000E+00  0.2000E+01
    -30.902  0.0000E+00  0.2000E+01
    -30.770  0.0000E+00  0.2000E+01
    -30.639  0.0000E+00  0.2000E+01
    -30.507  0.0000E+00  0.2000E+01
    -30.375  0.0000E+00  0.2000E+01
    -30.244  0.0000E+00  0.2000E+01
    -30.112  0.0000E+00  0.2000E+01
    -29.981  0.0000E+00  0.2000E+01
    -29.849  0.0000E+00  0.2000E+01
    -29.717  0.0000E+00  0.2000E+01
    -29.586  0.0000E+00  0.2000E+01
    -29.454  0.0000E+00  0.2000E+01
    -29.322  0.0000E+00  0.2000E+01
    -29.191  0.0000E+00  0.2000E+01
    -29.059  0.0000E+00  0.2000E+01
    -28.928  0.0000E+00  0.2000E+01
    -28.796  0.0000E+00  0.2000E+01
    -28.664  0.0000E+00  0.2000E+01
    -28.533  0.0000E+00  0.2000E+01
    -28.401  0.0000E+00  0.2000E+01
    -28.269  0.0000E+00  0.2000E+01
    -28.138  0.0000E+00  0.2000E+01
    -28.006  0.0000E+00  0.2000E+01
    -27.875  0.0000E+00  0.2000E+01
    -27.743  0.0000E+00  0.2000E+01
    -27.611  0.0000E+00  0.2000E+01
    -27.480  0.0000E+00  0.2000E+01
    -27.348  0.0000E+00  0.2000E+01
    -27.216  0.0000E+00  0.2000E+01
    -27.085  0.0000E+00  0.2000E+01
    -26.953  0.0000E+00  0.2000E+01
    -26.822  0.0000E+00  0.2000E+01
    -26.690  0.0000E+00  0.2000E+01
    -26.558  0.0000E+00  0.2000E+01
    -26.427  0.0000E+00  0.2000E+01
    -26.295  0.0000E+00  0.2000E+01
    -26.164  0.0000E+00  0.2000E+01
    -26.032  0.0000E+00  0.2000E+01
    -25.900  0.0000E+00  0.2000E+01
    -25.769  0.0000E+00  0.2000E+01
    -25.637  0.0000E+00  0.2000E+01
    -25.505  0.0000E+00  0.2000E+01
    -25.374  0.0000E+00  0.2000E+01
    -25.242  0.0000E+00  0.2000E+01
    -25.111  0.0000E+00  0.2000E+01
    -24.979  0.0000E+00  0.2000E+01
    -24.847  0.0000E+00  0.2000E+01
    -24.716  0.0000E+00  0.2000E+01
    -24.584  0.0000E+00  0.2000E+01
    -24.452  0.0000E+00  0.2000E+01
    -24.321  0.0000E+00  0.2000E+01
    -24.189  0.0000E+00  0.2000E+01
    -24.058  0.0000E+00  0.2000E+01
    -23.926  0.0000E+00  0.2000E+01
    -23.794  0.0000E+00  0.2000E+01
    -23.663  0.0000E+00  0.2000E+01
    -23.531  0.0000E+00  0.2000E+01
    -23.399  0.0000E+00  0.2000E+01
    -23.268  0.0000E+00  0.2000E+01
    -23.136  0.0000E+00  0.2000E+01
    -23.005  0.0000E+00  0.2000E+01
    -22.873  0.0000E+00  0.2000E+01
    -22.741  0.0000E+00  0.2000E+01
    -22.610  0.0000E+00  0.2000E+01
    -22.478  0.3876E-08  0.2000E+01
    -22.346  0.2746E-01  0.2004E+01
    -22.215  0.3901E+01  0.2517E+01
    -22.083  0.9504E+01  0.3768E+01
    -21.952  0.5045E+01  0.4432E+01
    -21.820  0.1040E+02  0.5801E+01
    -21.688  0.5424E+01  0.6515E+01
    -21.557  0.8122E+01  0.7584E+01
    -21.425  0.1214E+02  0.9181E+01
    -21.293  0.6209E+01  0.9999E+01
    -21.162  0.3328E+01  0.1044E+02
    -21.030  0.8982E+01  0.1162E+02
    -20.899  0.1050E+02  0.1300E+02
    -20.767  0.1059E+02  0.1439E+02
    -20.635  0.8773E+01  0.1555E+02
    -20.504  0.1540E+00  0.1557E+02
    -20.372  0.1266E+02  0.1724E+02
    -20.241  0.4355E+01  0.1781E+02
    -20.109  0.1824E+02  0.2021E+02
    -19.977  0.1786E+01  0.2045E+02
    -19.846  0.3202E+01  0.2087E+02
    -19.714  0.1348E+02  0.2264E+02
    -19.582  0.8816E+01  0.2380E+02
    -19.451  0.6556E+01  0.2466E+02
    -19.319  0.6034E+01  0.2546E+02
    -19.188  0.1456E+02  0.2737E+02
    -19.056  0.7067E+01  0.2830E+02
    -18.924  0.5301E+01  0.2900E+02
    -18.793  0.5303E+01  0.2970E+02
    -18.661  0.4581E+01  0.3030E+02
    -18.529  0.1441E+02  0.3220E+02
    -18.398  0.1105E+02  0.3365E+02
    -18.266  0.9259E+01  0.3487E+02
    -18.135  0.3896E+01  0.3539E+02
    -18.003  0.1608E+02  0.3750E+02
    -17.871  0.4768E+01  0.3813E+02
    -17.740  0.3933E+01  0.3865E+02
    -17.608  0.4735E+01  0.3927E+02
    -17.476  0.1624E+02  0.4141E+02
    -17.345  0.4162E+01  0.4196E+02
    -17.213  0.2170E+02  0.4481E+02
    -17.082  0.6938E+01  0.4573E+02
    -16.950  0.3714E+01  0.4622E+02
    -16.818  0.8389E+01  0.4732E+02
    -16.687  0.3913E+01  0.4784E+02
    -16.555  0.9253E+01  0.4905E+02
    -16.423  0.8738E+01  0.5020E+02
    -16.292  0.3234E+01  0.5063E+02
    -16.160  0.8776E+01  0.5178E+02
    -16.029  0.5917E+01  0.5256E+02
    -15.897  0.1332E+02  0.5432E+02
    -15.765  0.1231E+02  0.5594E+02
    -15.634  0.1978E+01  0.5620E+02
    -15.502  0.4050E+01  0.5673E+02
    -15.370  0.3101E+01  0.5714E+02
    -15.239  0.9839E+01  0.5843E+02
    -15.107  0.2148E+02  0.6126E+02
    -14.976  0.5430E+01  0.6197E+02
    -14.844  0.1113E+02  0.6344E+02
    -14.712  0.1094E+02  0.6488E+02
    -14.581  0.6484E+01  0.6573E+02
    -14.449  0.1418E+02  0.6760E+02
    -14.318  0.6423E+01  0.6844E+02
    -14.186  0.7017E+00  0.6854E+02
    -14.054  0.4366E+01  0.6911E+02
    -13.923  0.8855E+01  0.7028E+02
    -13.791  0.1574E+02  0.7235E+02
    -13.659  0.1981E+02  0.7496E+02
    -13.528  0.1760E+01  0.7519E+02
    -13.396  0.2778E+01  0.7555E+02
    -13.265  0.2722E+00  0.7559E+02
    -13.133  0.1059E+02  0.7698E+02
    -13.001  0.1381E+02  0.7880E+02
    -12.870  0.2060E+02  0.8151E+02
    -12.738  0.2014E+01  0.8178E+02
    -12.606  0.3306E+01  0.8221E+02
    -12.475  0.1853E+02  0.8465E+02
    -12.343  0.1100E+02  0.8610E+02
    -12.212  0.3913E+01  0.8661E+02
    -12.080  0.2403E+01  0.8693E+02
    -11.948  0.1298E+02  0.8864E+02
    -11.817  0.2844E+01  0.8901E+02
    -11.685  0.1476E+02  0.9096E+02
    -11.553  0.1874E+02  0.9342E+02
    -11.422  0.1379E+02  0.9524E+02
    -11.290  0.8128E+01  0.9631E+02
    -11.159  0.5902E+01  0.9709E+02
    -11.027  0.8617E+01  0.9822E+02
    -10.895  0.1099E+02  0.9967E+02
    -10.764  0.1865E+02  0.1021E+03
    -10.632  0.1679E+01  0.1023E+03
    -10.500  0.2013E+02  0.1050E+03
    -10.369  0.4612E+01  0.1056E+03
    -10.237  0.2187E+02  0.1085E+03
    -10.106  0.2688E+02  0.1120E+03
     -9.974  0.1969E+02  0.1146E+03
     -9.842  0.1263E+02  0.1163E+03
     -9.711  0.1866E+02  0.1187E+03
     -9.579  0.2567E+02  0.1221E+03
     -9.447  0.2303E+02  0.1251E+03
     -9.316  0.2566E+02  0.1285E+03
     -9.184  0.2422E+02  0.1317E+03
     -9.053  0.2807E+02  0.1354E+03
     -8.921  0.2016E+02  0.1381E+03
     -8.789  0.1984E+02  0.1407E+03
     -8.658  0.2055E+02  0.1434E+03
     -8.526  0.1916E+02  0.1459E+03
     -8.395  0.1601E+02  0.1480E+03
     -8.263  0.1567E+02  0.1501E+03
     -8.131  0.1458E+02  0.1520E+03
     -8.000  0.2952E+02  0.1559E+03
     -7.868  0.1632E+02  0.1580E+03
     -7.736  0.1816E+02  0.1604E+03
     -7.605  0.7090E+01  0.1613E+03
     -7.473  0.3376E+01  0.1618E+03
     -7.342  0.1368E+02  0.1636E+03
     -7.210  0.3335E+02  0.1680E+03
     -7.078  0.1843E+02  0.1704E+03
     -6.947  0.3028E+01  0.1708E+03
     -6.815  0.2047E+02  0.1735E+03
     -6.683  0.1116E+02  0.1750E+03
     -6.552  0.1694E+02  0.1772E+03
     -6.420  0.7604E+01  0.1782E+03
     -6.289  0.1169E+02  0.1797E+03
     -6.157  0.1541E+02  0.1818E+03
     -6.025  0.1442E+02  0.1837E+03
     -5.894  0.1822E+02  0.1861E+03
     -5.762  0.8979E+01  0.1872E+03
     -5.630  0.1371E+02  0.1890E+03
     -5.499  0.4303E+01  0.1896E+03
     -5.367  0.7213E+01  0.1906E+03
     -5.236  0.9444E+01  0.1918E+03
     -5.104  0.1019E+02  0.1931E+03
     -4.972  0.1657E+02  0.1953E+03
     -4.841  0.1862E+02  0.1978E+03
     -4.709  0.3229E+01  0.1982E+03
     -4.577  0.2063E+00  0.1982E+03
     -4.446  0.4657E-05  0.1982E+03
     -4.314  0.1532E+01  0.1984E+03
     -4.183  0.1707E+02  0.2007E+03
     -4.051  0.6717E+01  0.2016E+03
     -3.919  0.4391E-02  0.2016E+03
     -3.788  0.1988E+00  0.2016E+03
     -3.656  0.3126E+01  0.2020E+03
     -3.524  0.1544E+00  0.2020E+03
     -3.393  0.3722E+01  0.2025E+03
     -3.261  0.1218E+02  0.2041E+03
     -3.130  0.1007E+02  0.2054E+03
     -2.998  0.4326E+01  0.2060E+03
     -2.866  0.1921E+01  0.2063E+03
     -2.735  0.9620E+01  0.2075E+03
     -2.603  0.2601E+00  0.2076E+03
     -2.472  0.2829E-01  0.2076E+03
     -2.340  0.3041E+01  0.2080E+03
     -2.208  0.2575E+01  0.2083E+03
     -2.077  0.1109E+01  0.2084E+03
     -1.945  0.5216E-04  0.2084E+03
     -1.813  0.1628E-08  0.2084E+03
     -1.682  0.5222E-01  0.2085E+03
     -1.550  0.8852E+01  0.2096E+03
     -1.419  0.1126E+02  0.2111E+03
     -1.287  0.5158E+01  0.2118E+03
     -1.155  0.5746E-03  0.2118E+03
     -1.024  0.6140E+00  0.2119E+03
     -0.892  0.8669E+01  0.2130E+03
     -0.760  0.2453E+02  0.2162E+03
     -0.629  0.1872E+02  0.2187E+03
     -0.497  0.5974E+01  0.2195E+03
     -0.366  0.5865E+00  0.2196E+03
     -0.234  0.3582E+01  0.2200E+03
     -0.102  0.1099E+02  0.2215E+03
      0.029  0.1082E+02  0.2229E+03
      0.161  0.1648E+01  0.2231E+03
      0.293  0.1352E+02  0.2249E+03
      0.424  0.9459E+01  0.2261E+03
      0.556  0.3419E+01  0.2266E+03
      0.687  0.8429E+01  0.2277E+03
      0.819  0.1919E+02  0.2302E+03
      0.951  0.5973E+01  0.2310E+03
      1.082  0.9809E+01  0.2323E+03
      1.214  0.1650E+02  0.2345E+03
      1.346  0.6935E+01  0.2354E+03
      1.477  0.1498E+02  0.2374E+03
      1.609  0.2290E+02  0.2404E+03
      1.740  0.1479E+02  0.2423E+03
      1.872  0.2867E+02  0.2461E+03
      2.004  0.9121E+01  0.2473E+03
      2.135  0.1483E+02  0.2492E+03
      2.267  0.2546E+02  0.2526E+03
      2.399  0.3349E+02  0.2570E+03
      2.530  0.1254E+02  0.2587E+03
      2.662  0.5908E+01  0.2594E+03
      2.793  0.6218E+01  0.2603E+03
      2.925  0.8259E+01  0.2613E+03
      3.057  0.8616E+01  0.2625E+03
      3.188  0.2594E+01  0.2628E+03
      3.320  0.2260E+01  0.2631E+03
      3.451  0.1813E-02  0.2631E+03
      3.583  0.1235E+01  0.2633E+03
      3.715  0.2140E+01  0.2636E+03
      3.846  0.1224E-02  0.2636E+03
      3.978  0.6487E-06  0.2636E+03
      4.110  0.2968E+00  0.2636E+03
      4.241  0.3050E+01  0.2640E+03
      4.373  0.3011E-01  0.2640E+03
      4.504  0.1884E-08  0.2640E+03
      4.636  0.0000E+00  0.2640E+03
      4.768  0.0000E+00  0.2640E+03
      4.899  0.0000E+00  0.2640E+03
      5.031  0.0000E+00  0.2640E+03
      5.163  0.0000E+00  0.2640E+03
      5.294  0.0000E+00  0.2640E+03
      5.426  0.0000E+00  0.2640E+03
      5.557  0.0000E+00  0.2640E+03
      5.689  0.0000E+00  0.2640E+03
      5.821  0.0000E+00  0.2640E+03
      5.952  0.0000E+00  0.2640E+03
