  30  30   0   0
  0.2453841E+02  0.6380631E-09  0.6380631E-09  0.2087900E-08  0.5000000E-15
  1.000000000000000E-004
  CAR 
                                         
      9.73136111    -23.46281598  301      1.36824348      1.00000000
    -23.463  0.0000E+00  0.0000E+00
    -23.352  0.0000E+00  0.0000E+00
    -23.242  0.0000E+00  0.0000E+00
    -23.131  0.0000E+00  0.0000E+00
    -23.020  0.0000E+00  0.0000E+00
    -22.910  0.0000E+00  0.0000E+00
    -22.799  0.0000E+00  0.0000E+00
    -22.688  0.0000E+00  0.0000E+00
    -22.578  0.0000E+00  0.0000E+00
    -22.467  0.0000E+00  0.0000E+00
    -22.356  0.0000E+00  0.0000E+00
    -22.246  0.6271E-16  0.6939E-17
    -22.135  0.1716E-06  0.1898E-07
    -22.024  0.2622E-01  0.2901E-02
    -21.914  0.9594E+00  0.1091E+00
    -21.803  0.4969E+00  0.1640E+00
    -21.692  0.5976E+01  0.8253E+00
    -21.582  0.4490E+00  0.8750E+00
    -21.471  0.2373E-03  0.8750E+00
    -21.361  0.1323E+01  0.1021E+01
    -21.250  0.5378E+01  0.1616E+01
    -21.139  0.2264E+01  0.1867E+01
    -21.029  0.4566E+01  0.2372E+01
    -20.918  0.2577E-01  0.2375E+01
    -20.807  0.2265E-07  0.2375E+01
    -20.697  0.3417E-06  0.2375E+01
    -20.586  0.1378E+00  0.2390E+01
    -20.475  0.1058E+02  0.3561E+01
    -20.365  0.2835E+01  0.3875E+01
    -20.254  0.5731E-03  0.3875E+01
    -20.143  0.5269E+00  0.3933E+01
    -20.033  0.5955E+01  0.4592E+01
    -19.922  0.2963E+00  0.4625E+01
    -19.811  0.4429E-05  0.4625E+01
    -19.701  0.1741E-08  0.4625E+01
    -19.590  0.6893E-02  0.4626E+01
    -19.480  0.3502E+01  0.5013E+01
    -19.369  0.3330E+01  0.5382E+01
    -19.258  0.9520E+01  0.6435E+01
    -19.148  0.3975E+01  0.6875E+01
    -19.037  0.1623E-02  0.6875E+01
    -18.926  0.7089E-10  0.6875E+01
    -18.816  0.1274E-03  0.6875E+01
    -18.705  0.1088E+01  0.6995E+01
    -18.594  0.5580E+01  0.7613E+01
    -18.484  0.1104E+00  0.7625E+01
    -18.373  0.4701E-06  0.7625E+01
    -18.262  0.3074E-06  0.7625E+01
    -18.152  0.1310E+00  0.7639E+01
    -18.041  0.1052E+02  0.8803E+01
    -17.930  0.2909E+01  0.9125E+01
    -17.820  0.7390E-03  0.9125E+01
    -17.709  0.1753E+01  0.9319E+01
    -17.599  0.1149E+02  0.1059E+02
    -17.488  0.3084E+00  0.1062E+02
    -17.377  0.1968E-05  0.1062E+02
    -17.267  0.0000E+00  0.1062E+02
    -17.156  0.2107E-13  0.1063E+02
    -17.045  0.1021E-04  0.1063E+02
    -16.935  0.4184E+00  0.1067E+02
    -16.824  0.5980E+01  0.1133E+02
    -16.713  0.3797E+00  0.1137E+02
    -16.603  0.4750E-02  0.1138E+02
    -16.492  0.3208E+01  0.1173E+02
    -16.381  0.3662E+01  0.1214E+02
    -16.271  0.1020E+02  0.1326E+02
    -16.160  0.3259E+01  0.1362E+02
    -16.049  0.8531E-03  0.1362E+02
    -15.939  0.3561E-07  0.1363E+02
    -15.828  0.4568E-01  0.1363E+02
    -15.718  0.8940E+01  0.1462E+02
    -15.607  0.4569E+01  0.1512E+02
    -15.496  0.2614E-02  0.1512E+02
    -15.386  0.1628E-09  0.1512E+02
    -15.275  0.1488E-05  0.1513E+02
    -15.164  0.1251E+00  0.1514E+02
    -15.054  0.2960E+01  0.1547E+02
    -14.943  0.3044E+00  0.1550E+02
    -14.832  0.1316E-04  0.1550E+02
    -14.722  0.8659E-03  0.1550E+02
    -14.611  0.3278E+01  0.1586E+02
    -14.500  0.1336E+02  0.1734E+02
    -14.390  0.4804E+01  0.1787E+02
    -14.279  0.3159E+01  0.1822E+02
    -14.168  0.6983E+01  0.1900E+02
    -14.058  0.4406E-01  0.1900E+02
    -13.947  0.8016E-01  0.1901E+02
    -13.837  0.6355E+01  0.1971E+02
    -13.726  0.8096E+01  0.2061E+02
    -13.615  0.5697E+01  0.2124E+02
    -13.505  0.1071E+00  0.2125E+02
    -13.394  0.2035E-01  0.2125E+02
    -13.283  0.9111E+01  0.2226E+02
    -13.173  0.2167E+02  0.2466E+02
    -13.062  0.4942E+01  0.2520E+02
    -12.951  0.1172E+02  0.2650E+02
    -12.841  0.9017E+01  0.2750E+02
    -12.730  0.8079E+01  0.2839E+02
    -12.619  0.3078E+02  0.3180E+02
    -12.509  0.8238E+01  0.3271E+02
    -12.398  0.2696E+02  0.3569E+02
    -12.287  0.2134E+02  0.3806E+02
    -12.177  0.8514E+01  0.3900E+02
    -12.066  0.3403E+01  0.3937E+02
    -11.956  0.6070E-02  0.3937E+02
    -11.845  0.2528E-02  0.3938E+02
    -11.734  0.4525E+01  0.3988E+02
    -11.624  0.8982E+01  0.4087E+02
    -11.513  0.4690E-01  0.4087E+02
    -11.402  0.3751E-07  0.4088E+02
    -11.292  0.0000E+00  0.4088E+02
    -11.181  0.0000E+00  0.4088E+02
    -11.070  0.0000E+00  0.4088E+02
    -10.960  0.7527E-07  0.4088E+02
    -10.849  0.6632E-01  0.4088E+02
    -10.738  0.9526E+01  0.4194E+02
    -10.628  0.3963E+01  0.4237E+02
    -10.517  0.1654E-02  0.4238E+02
    -10.406  0.1168E+01  0.4250E+02
    -10.296  0.1186E+02  0.4382E+02
    -10.185  0.5273E+00  0.4388E+02
    -10.074  0.2161E+01  0.4411E+02
     -9.964  0.4590E+01  0.4462E+02
     -9.853  0.1285E+01  0.4476E+02
     -9.743  0.5675E+01  0.4539E+02
     -9.632  0.9638E+00  0.4550E+02
     -9.521  0.1375E+01  0.4565E+02
     -9.411  0.1059E+02  0.4682E+02
     -9.300  0.1607E+01  0.4700E+02
     -9.189  0.3635E+01  0.4740E+02
     -9.079  0.9839E+01  0.4849E+02
     -8.968  0.1485E+00  0.4851E+02
     -8.857  0.5272E+01  0.4909E+02
     -8.747  0.1439E+01  0.4925E+02
     -8.636  0.1601E+01  0.4943E+02
     -8.525  0.5124E+01  0.4999E+02
     -8.415  0.1843E+01  0.5020E+02
     -8.304  0.4947E+01  0.5075E+02
     -8.193  0.3560E+01  0.5114E+02
     -8.083  0.1119E+02  0.5238E+02
     -7.972  0.1191E+02  0.5370E+02
     -7.862  0.8444E+00  0.5379E+02
     -7.751  0.1162E+02  0.5508E+02
     -7.640  0.1582E+01  0.5525E+02
     -7.530  0.3332E+01  0.5562E+02
     -7.419  0.1012E+02  0.5674E+02
     -7.308  0.5463E+00  0.5680E+02
     -7.198  0.5977E+01  0.5746E+02
     -7.087  0.3543E+00  0.5750E+02
     -6.976  0.1256E-02  0.5750E+02
     -6.866  0.2304E+01  0.5776E+02
     -6.755  0.1375E+02  0.5928E+02
     -6.644  0.1029E+02  0.6042E+02
     -6.534  0.8318E+00  0.6051E+02
     -6.423  0.5301E+01  0.6109E+02
     -6.312  0.8585E+01  0.6204E+02
     -6.202  0.1931E+02  0.6418E+02
     -6.091  0.1403E+02  0.6573E+02
     -5.981  0.4435E+01  0.6622E+02
     -5.870  0.1011E+02  0.6734E+02
     -5.759  0.1700E+02  0.6922E+02
     -5.649  0.9084E+01  0.7023E+02
     -5.538  0.2702E+01  0.7053E+02
     -5.427  0.3132E+02  0.7399E+02
     -5.317  0.4282E+02  0.7873E+02
     -5.206  0.2592E+02  0.8160E+02
     -5.095  0.3618E+01  0.8200E+02
     -4.985  0.6729E-02  0.8200E+02
     -4.874  0.7917E+00  0.8209E+02
     -4.763  0.5811E+01  0.8273E+02
     -4.653  0.4831E+01  0.8327E+02
     -4.542  0.9803E+01  0.8435E+02
     -4.431  0.1553E+02  0.8607E+02
     -4.321  0.2158E+02  0.8846E+02
     -4.210  0.3148E+02  0.9194E+02
     -4.100  0.2963E+02  0.9522E+02
     -3.989  0.1933E+02  0.9736E+02
     -3.878  0.6903E+01  0.9812E+02
     -3.768  0.6208E-01  0.9813E+02
     -3.657  0.7233E+01  0.9893E+02
     -3.546  0.3605E+02  0.1029E+03
     -3.436  0.1675E+02  0.1048E+03
     -3.325  0.1644E+02  0.1066E+03
     -3.214  0.1164E+02  0.1079E+03
     -3.104  0.4442E+01  0.1084E+03
     -2.993  0.1056E+02  0.1095E+03
     -2.882  0.1269E+02  0.1109E+03
     -2.772  0.1051E+02  0.1121E+03
     -2.661  0.1221E+02  0.1135E+03
     -2.550  0.5796E+01  0.1141E+03
     -2.440  0.2007E+02  0.1163E+03
     -2.329  0.2488E+02  0.1191E+03
     -2.219  0.2774E+02  0.1221E+03
     -2.108  0.3186E+02  0.1257E+03
     -1.997  0.6999E+01  0.1264E+03
     -1.887  0.1002E+02  0.1275E+03
     -1.776  0.6287E+01  0.1282E+03
     -1.665  0.1971E+02  0.1304E+03
     -1.555  0.9337E+01  0.1315E+03
     -1.444  0.6494E+01  0.1322E+03
     -1.333  0.1327E+02  0.1336E+03
     -1.223  0.1147E+02  0.1349E+03
     -1.112  0.1765E+02  0.1369E+03
     -1.001  0.7572E+01  0.1377E+03
     -0.891  0.2085E+02  0.1400E+03
     -0.780  0.5563E+01  0.1406E+03
     -0.669  0.3081E+00  0.1407E+03
     -0.559  0.2030E+02  0.1429E+03
     -0.448  0.7276E+01  0.1437E+03
     -0.338  0.3609E+00  0.1437E+03
     -0.227  0.1738E-03  0.1437E+03
     -0.116  0.9052E-11  0.1438E+03
     -0.006  0.0000E+00  0.1438E+03
      0.105  0.0000E+00  0.1438E+03
      0.216  0.0000E+00  0.1438E+03
      0.326  0.0000E+00  0.1438E+03
      0.437  0.0000E+00  0.1438E+03
      0.548  0.0000E+00  0.1438E+03
      0.658  0.0000E+00  0.1438E+03
      0.769  0.0000E+00  0.1438E+03
      0.880  0.0000E+00  0.1438E+03
      0.990  0.0000E+00  0.1438E+03
      1.101  0.5017E-15  0.1438E+03
      1.212  0.1087E-05  0.1438E+03
      1.322  0.1903E+00  0.1438E+03
      1.433  0.9198E+01  0.1448E+03
      1.543  0.7589E+01  0.1456E+03
      1.654  0.1456E+02  0.1472E+03
      1.765  0.2684E+02  0.1502E+03
      1.875  0.1215E+02  0.1516E+03
      1.986  0.1346E+02  0.1530E+03
      2.097  0.3406E+02  0.1568E+03
      2.207  0.5532E+01  0.1574E+03
      2.318  0.2223E+02  0.1599E+03
      2.429  0.1409E+02  0.1614E+03
      2.539  0.1581E+02  0.1632E+03
      2.650  0.1092E+02  0.1644E+03
      2.761  0.1204E+02  0.1657E+03
      2.871  0.1913E+01  0.1659E+03
      2.982  0.4984E+01  0.1665E+03
      3.093  0.4108E+01  0.1669E+03
      3.203  0.2670E+02  0.1699E+03
      3.314  0.8756E+01  0.1709E+03
      3.424  0.2082E+01  0.1711E+03
      3.535  0.1989E+00  0.1711E+03
      3.646  0.2353E+01  0.1714E+03
      3.756  0.1732E+02  0.1733E+03
      3.867  0.6640E+00  0.1734E+03
      3.978  0.8695E-05  0.1734E+03
      4.088  0.9031E-14  0.1734E+03
      4.199  0.0000E+00  0.1734E+03
      4.310  0.0000E+00  0.1734E+03
      4.420  0.0000E+00  0.1734E+03
      4.531  0.0000E+00  0.1734E+03
      4.642  0.5281E-06  0.1734E+03
      4.752  0.1691E+00  0.1734E+03
      4.863  0.1120E+02  0.1746E+03
      4.974  0.8519E+01  0.1756E+03
      5.084  0.4434E+00  0.1756E+03
      5.195  0.1176E-04  0.1756E+03
      5.305  0.4527E-05  0.1756E+03
      5.416  0.2990E+00  0.1757E+03
      5.527  0.5957E+01  0.1763E+03
      5.637  0.5226E+00  0.1764E+03
      5.748  0.1781E-04  0.1764E+03
      5.859  0.5268E-13  0.1764E+03
      5.969  0.0000E+00  0.1764E+03
      6.080  0.0000E+00  0.1764E+03
      6.191  0.1505E-14  0.1764E+03
      6.301  0.2332E-05  0.1764E+03
      6.412  0.3326E+00  0.1764E+03
      6.523  0.1156E+02  0.1777E+03
      6.633  0.1663E+01  0.1779E+03
      6.744  0.1205E-03  0.1779E+03
      6.855  0.7894E-12  0.1779E+03
      6.965  0.0000E+00  0.1779E+03
      7.076  0.0000E+00  0.1779E+03
      7.186  0.0000E+00  0.1779E+03
      7.297  0.0000E+00  0.1779E+03
      7.408  0.0000E+00  0.1779E+03
      7.518  0.3386E-14  0.1779E+03
      7.629  0.4297E-05  0.1779E+03
      7.740  0.4349E+00  0.1779E+03
      7.850  0.1176E+02  0.1792E+03
      7.961  0.1363E+01  0.1794E+03
      8.072  0.1523E-02  0.1794E+03
      8.182  0.1820E+01  0.1796E+03
      8.293  0.3787E+01  0.1800E+03
      8.404  0.3980E-01  0.1800E+03
      8.514  0.1845E-06  0.1800E+03
      8.625  0.0000E+00  0.1800E+03
      8.736  0.0000E+00  0.1800E+03
      8.846  0.0000E+00  0.1800E+03
      8.957  0.0000E+00  0.1800E+03
      9.067  0.0000E+00  0.1800E+03
      9.178  0.0000E+00  0.1800E+03
      9.289  0.0000E+00  0.1800E+03
      9.399  0.0000E+00  0.1800E+03
      9.510  0.0000E+00  0.1800E+03
      9.621  0.0000E+00  0.1800E+03
      9.731  0.0000E+00  0.1800E+03
