<?xml version="1.0" encoding="ISO-8859-1"?>
<modeling>
 <generator>
  <i name="program" type="string">vasp </i>
  <i name="version" type="string">5.4.4.18Apr17-6-g9f103f2a35  </i>
  <i name="subversion" type="string">(build Apr 13 2022 18:32:11) complex            parallel </i>
  <i name="platform" type="string">LinuxIFC </i>
  <i name="date" type="string">2024 07 14 </i>
  <i name="time" type="string">19:52:07 </i>
 </generator>
 <incar>
  <i type="int" name="ISTART">     0</i>
  <i type="string" name="PREC">accurate</i>
  <i type="string" name="ALGO"> F          N:DAV,fine,slow</i>
  <i type="int" name="ISPIN">     1</i>
  <i type="int" name="ICHARG">     2</i>
  <i type="int" name="NELM">   300</i>
  <i type="int" name="IBRION">    -1</i>
  <i name="EDIFF">      0.00001000</i>
  <i name="EDIFFG">     -0.00100000</i>
  <i type="int" name="NSW">     0</i>
  <i type="int" name="ISIF">     2</i>
  <i name="ENCUT">    400.00000000</i>
  <i type="int" name="ISMEAR">     0</i>
  <i name="SIGMA">      0.05000000</i>
  <i type="logical" name="LWAVE"> F  </i>
  <i type="logical" name="LCHARG"> T  </i>
  <v type="int" name="KPOINT_BSE">    -1     0     0     0</v>
  <i type="int" name="NELM">   300</i>
 </incar>
 <structure name="primitive_cell" >
  <crystal>
   <varray name="basis" >
    <v>       6.38063097       0.00000000       0.00000000 </v>
    <v>       3.19031401       5.52578936       0.00000000 </v>
    <v>       0.00000000       0.00000000      20.87900352 </v>
   </varray>
   <i name="volume">    736.15238097 </i>
   <varray name="rec_basis" >
    <v>       0.15672431      -0.09048477      -0.00000000 </v>
    <v>       0.00000000       0.18096962      -0.00000000 </v>
    <v>       0.00000000       0.00000000       0.04789501 </v>
   </varray>
  </crystal>
  <varray name="positions" >
   <v>       0.16666651       0.16666649       0.38133727 </v>
   <v>       0.33333351      -0.16666651       0.30638715 </v>
   <v>       0.33333351      -0.16666651       0.45628740 </v>
   <v>      -0.16666649       0.33333349       0.30638715 </v>
   <v>      -0.16666649       0.33333349       0.45628740 </v>
   <v>       0.33333351       0.33333349       0.30638715 </v>
   <v>       0.33333351       0.33333349       0.45628740 </v>
   <v>       0.16666651      -0.33333351       0.38133727 </v>
   <v>      -0.33333349       0.16666649       0.38133727 </v>
   <v>      -0.33333349      -0.33333351       0.38133727 </v>
   <v>      -0.16666649      -0.16666651       0.30638715 </v>
   <v>      -0.16666649      -0.16666651       0.45628740 </v>
   <v>       0.11111100       0.11111100      -0.30638715 </v>
   <v>       0.33333333       0.00000000      -0.30638715 </v>
   <v>       0.00000000       0.33333333      -0.30638715 </v>
   <v>       0.44444434       0.11111100      -0.30638715 </v>
   <v>       0.11111100       0.44444433      -0.30638715 </v>
   <v>       0.00000000       0.00000000      -0.30638715 </v>
   <v>       0.33333333       0.33333333      -0.30638715 </v>
   <v>       0.44444434      -0.22222234      -0.30638715 </v>
   <v>      -0.22222233       0.44444433      -0.30638715 </v>
   <v>       0.11111100      -0.22222234      -0.30638715 </v>
   <v>      -0.22222233       0.11111100      -0.30638715 </v>
   <v>       0.33333333      -0.33333333      -0.30638715 </v>
   <v>      -0.33333333       0.33333333      -0.30638715 </v>
   <v>      -0.33333333       0.00000000      -0.30638715 </v>
   <v>       0.00000000      -0.33333333      -0.30638715 </v>
   <v>       0.44444434       0.44444433      -0.30638715 </v>
   <v>      -0.33333333      -0.33333333      -0.30638715 </v>
   <v>      -0.22222233      -0.22222234      -0.30638715 </v>
  </varray>
 </structure>
 <varray name="primitive_index" >
  <v type="int" >        1 </v>
  <v type="int" >        7 </v>
  <v type="int" >       11 </v>
  <v type="int" >        6 </v>
  <v type="int" >       10 </v>
  <v type="int" >        5 </v>
  <v type="int" >        9 </v>
  <v type="int" >        3 </v>
  <v type="int" >        2 </v>
  <v type="int" >        4 </v>
  <v type="int" >        8 </v>
  <v type="int" >       12 </v>
  <v type="int" >       22 </v>
  <v type="int" >       14 </v>
  <v type="int" >       16 </v>
  <v type="int" >       23 </v>
  <v type="int" >       25 </v>
  <v type="int" >       13 </v>
  <v type="int" >       17 </v>
  <v type="int" >       29 </v>
  <v type="int" >       27 </v>
  <v type="int" >       28 </v>
  <v type="int" >       24 </v>
  <v type="int" >       20 </v>
  <v type="int" >       18 </v>
  <v type="int" >       15 </v>
  <v type="int" >       19 </v>
  <v type="int" >       26 </v>
  <v type="int" >       21 </v>
  <v type="int" >       30 </v>
 </varray>
 <kpoints>
  <generation param="Gamma">
   <v type="int" name="divisions">       4        4        1 </v>
   <v name="usershift">      0.00000000       0.00000000       0.00000000 </v>
   <v name="genvec1">      0.25000000       0.00000000      -0.00000000 </v>
   <v name="genvec2">      0.00000000       0.25000000       0.00000000 </v>
   <v name="genvec3">      0.00000000       0.00000000       1.00000000 </v>
   <v name="shift">      0.00000000       0.00000000       0.00000000 </v>
  </generation>
  <varray name="kpointlist" >
   <v>       0.00000000       0.00000000       0.00000000 </v>
   <v>       0.25000000       0.00000000       0.00000000 </v>
   <v>       0.50000000       0.00000000       0.00000000 </v>
   <v>       0.50000000       0.25000000       0.00000000 </v>
  </varray>
  <varray name="weights" >
   <v>       0.06250000 </v>
   <v>       0.37500000 </v>
   <v>       0.18750000 </v>
   <v>       0.37500000 </v>
  </varray>
 </kpoints>
 <parameters>
  <separator name="general" >
   <i type="string" name="SYSTEM"></i>
   <i type="logical" name="LCOMPAT"> F  </i>
  </separator>
  <separator name="electronic" >
   <i type="string" name="PREC">accura</i>
   <i name="ENMAX">    400.00000000</i>
   <i name="ENAUG">    644.87300000</i>
   <i name="EDIFF">      0.00001000</i>
   <i type="int" name="IALGO">    68</i>
   <i type="int" name="IWAVPR">    10</i>
   <i type="int" name="NBANDS">    90</i>
   <i name="NELECT">    144.00000000</i>
   <i type="int" name="TURBO">     0</i>
   <i type="int" name="IRESTART">     0</i>
   <i type="int" name="NREBOOT">     0</i>
   <i type="int" name="NMIN">     0</i>
   <i name="EREF">      0.00000000</i>
   <separator name="electronic smearing" >
    <i type="int" name="ISMEAR">     0</i>
    <i name="SIGMA">      0.05000000</i>
    <i name="KSPACING">      0.50000000</i>
    <i type="logical" name="KGAMMA"> T  </i>
   </separator>
   <separator name="electronic projectors" >
    <i type="logical" name="LREAL"> F  </i>
    <v name="ROPT">      0.00000000      0.00000000      0.00000000</v>
    <i type="int" name="LMAXPAW">  -100</i>
    <i type="int" name="LMAXMIX">     2</i>
    <i type="logical" name="NLSPLINE"> F  </i>
   </separator>
   <separator name="electronic startup" >
    <i type="int" name="ISTART">     0</i>
    <i type="int" name="ICHARG">     2</i>
    <i type="int" name="INIWAV">     1</i>
   </separator>
   <separator name="electronic spin" >
    <i type="int" name="ISPIN">     1</i>
    <i type="logical" name="LNONCOLLINEAR"> F  </i>
    <v name="MAGMOM">      1.00000000      1.00000000      1.00000000      1.00000000      1.00000000      1.00000000      1.00000000      1.00000000      1.00000000      1.00000000      1.00000000      1.00000000      1.00000000      1.00000000      1.00000000      1.00000000      1.00000000      1.00000000      1.00000000      1.00000000
      1.00000000      1.00000000      1.00000000      1.00000000      1.00000000      1.00000000      1.00000000      1.00000000      1.00000000      1.00000000</v>
    <i name="NUPDOWN">     -1.00000000</i>
    <i type="logical" name="LSORBIT"> F  </i>
    <v name="SAXIS">      0.00000000      0.00000000      1.00000000</v>
    <i type="logical" name="LSPIRAL"> F  </i>
    <v name="QSPIRAL">      0.00000000      0.00000000      0.00000000</v>
    <i type="logical" name="LZEROZ"> F  </i>
   </separator>
   <separator name="electronic exchange-correlation" >
    <i type="logical" name="LASPH"> F  </i>
    <i type="logical" name="LMETAGGA"> F  </i>
   </separator>
   <separator name="electronic convergence" >
    <i type="int" name="NELM">   300</i>
    <i type="int" name="NELMDL">    -5</i>
    <i type="int" name="NELMIN">     2</i>
    <i name="ENINI">    400.00000000</i>
    <separator name="electronic convergence detail" >
     <i type="logical" name="LDIAG"> T  </i>
     <i type="logical" name="LSUBROT"> F  </i>
     <i name="WEIMIN">      0.00000000</i>
     <i name="EBREAK">      0.00000003</i>
     <i name="DEPER">      0.30000000</i>
     <i type="int" name="NRMM">     4</i>
     <i name="TIME">      0.40000000</i>
    </separator>
   </separator>
   <separator name="electronic mixer" >
    <i name="AMIX">      0.40000000</i>
    <i name="BMIX">      1.00000000</i>
    <i name="AMIN">      0.10000000</i>
    <i name="AMIX_MAG">      1.60000000</i>
    <i name="BMIX_MAG">      1.00000000</i>
    <separator name="electronic mixer details" >
     <i type="int" name="IMIX">     4</i>
     <i type="logical" name="MIXFIRST"> F  </i>
     <i type="int" name="MAXMIX">   -45</i>
     <i name="WC">    100.00000000</i>
     <i type="int" name="INIMIX">     1</i>
     <i type="int" name="MIXPRE">     1</i>
     <i type="int" name="MREMOVE">     5</i>
    </separator>
   </separator>
   <separator name="electronic dipolcorrection" >
    <i type="logical" name="LDIPOL"> F  </i>
    <i type="logical" name="LMONO"> F  </i>
    <i type="int" name="IDIPOL">     0</i>
    <i name="EPSILON">      1.00000000</i>
    <v name="DIPOL">   -100.00000000   -100.00000000   -100.00000000</v>
    <i name="EFIELD">      0.00000000</i>
   </separator>
  </separator>
  <separator name="grids" >
   <i type="int" name="NGX">    42</i>
   <i type="int" name="NGY">    42</i>
   <i type="int" name="NGZ">   140</i>
   <i type="int" name="NGXF">    84</i>
   <i type="int" name="NGYF">    84</i>
   <i type="int" name="NGZF">   280</i>
   <i type="logical" name="ADDGRID"> F  </i>
  </separator>
  <separator name="ionic" >
   <i type="int" name="NSW">     0</i>
   <i type="int" name="IBRION">    -1</i>
   <i type="int" name="MDALGO">     0</i>
   <i type="int" name="ISIF">     2</i>
   <i name="PSTRESS">      0.00000000</i>
   <i name="EDIFFG">     -0.00100000</i>
   <i type="int" name="NFREE">     0</i>
   <i name="POTIM">      0.50000000</i>
   <i name="SMASS">     -3.00000000</i>
   <i name="SCALEE">      1.00000000</i>
  </separator>
  <separator name="ionic md" >
   <i name="TEBEG">      0.00010000</i>
   <i name="TEEND">      0.00010000</i>
   <i type="int" name="NBLOCK">     1</i>
   <i type="int" name="KBLOCK">     1</i>
   <i type="int" name="NPACO">   256</i>
   <i name="APACO">     16.00000000</i>
  </separator>
  <separator name="symmetry" >
   <i type="int" name="ISYM">     2</i>
   <i name="SYMPREC">      0.00001000</i>
  </separator>
  <separator name="dos" >
   <i type="int" name="LORBIT">     0</i>
   <v name="RWIGS">     -1.00000000     -1.00000000     -1.00000000</v>
   <i type="int" name="NEDOS">   301</i>
   <i name="EMIN">     10.00000000</i>
   <i name="EMAX">    -10.00000000</i>
   <i name="EFERMI">      0.00000000</i>
  </separator>
  <separator name="writing" >
   <i type="int" name="NWRITE">     2</i>
   <i type="logical" name="LWAVE"> F  </i>
   <i type="logical" name="LDOWNSAMPLE"> F  </i>
   <i type="logical" name="LCHARG"> T  </i>
   <i type="logical" name="LPARD"> F  </i>
   <i type="logical" name="LVTOT"> F  </i>
   <i type="logical" name="LVHAR"> F  </i>
   <i type="logical" name="LELF"> F  </i>
   <i type="logical" name="LOPTICS"> F  </i>
   <v name="STM">      0.00000000      0.00000000      0.00000000      0.00000000      0.00000000      0.00000000      0.00000000</v>
  </separator>
  <separator name="performance" >
   <i type="int" name="NPAR">     6</i>
   <i type="int" name="NSIM">     4</i>
   <i type="int" name="NBLK">    -1</i>
   <i type="logical" name="LPLANE"> T  </i>
   <i type="logical" name="LSCALAPACK"> T  </i>
   <i type="logical" name="LSCAAWARE"> F  </i>
   <i type="logical" name="LSCALU"> F  </i>
   <i type="logical" name="LASYNC"> F  </i>
   <i type="logical" name="LORBITALREAL"> F  </i>
  </separator>
  <separator name="miscellaneous" >
   <i type="int" name="IDIOT">     3</i>
   <i type="int" name="ISPECIAL">     0</i>
   <i type="logical" name="LMUSIC"> F  </i>
   <v name="POMASS">     95.94000000     32.06600000     12.01100000</v>
   <v name="DARWINR">      0.00000000      0.00000000      0.00000000</v>
   <v name="DARWINV">      1.00000000      1.00000000      1.00000000</v>
   <i type="logical" name="LCORR"> T  </i>
  </separator>
  <i type="logical" name="GGA_COMPAT"> T  </i>
  <i type="logical" name="LBERRY"> F  </i>
  <i type="int" name="ICORELEVEL">     0</i>
  <i type="logical" name="LDAU"> F  </i>
  <i type="int" name="I_CONSTRAINED_M">     0</i>
  <separator name="electronic exchange-correlation" >
   <i type="string" name="GGA">--</i>
   <i type="int" name="VOSKOWN">     0</i>
   <i type="logical" name="LHFCALC"> F  </i>
   <i type="string" name="PRECFOCK"></i>
   <i type="logical" name="LSYMGRAD"> F  </i>
   <i type="logical" name="LHFONE"> F  </i>
   <i type="logical" name="LRHFCALC"> F  </i>
   <i type="logical" name="LTHOMAS"> F  </i>
   <i type="logical" name="LMODELHF"> F  </i>
   <i name="ENCUT4O">     -1.00000000</i>
   <i type="int" name="EXXOEP">     0</i>
   <i type="int" name="FOURORBIT">     0</i>
   <i name="AEXX">      0.00000000</i>
   <i name="HFALPHA">      0.00000000</i>
   <i name="MCALPHA">      0.00000000</i>
   <i name="ALDAX">      1.00000000</i>
   <i name="AGGAX">      1.00000000</i>
   <i name="ALDAC">      1.00000000</i>
   <i name="AGGAC">      1.00000000</i>
   <i type="int" name="NKREDX">     1</i>
   <i type="int" name="NKREDY">     1</i>
   <i type="int" name="NKREDZ">     1</i>
   <i type="logical" name="SHIFTRED"> F  </i>
   <i type="logical" name="ODDONLY"> F  </i>
   <i type="logical" name="EVENONLY"> F  </i>
   <i type="int" name="LMAXFOCK">     0</i>
   <i type="int" name="NMAXFOCKAE">     0</i>
   <i type="logical" name="LFOCKAEDFT"> F  </i>
   <i name="HFSCREEN">      0.00000000</i>
   <i name="HFSCREENC">      0.00000000</i>
   <i type="int" name="NBANDSGWLOW">     0</i>
  </separator>
  <separator name="vdW DFT" >
   <i type="logical" name="LUSE_VDW"> F  </i>
   <i name="Zab_VDW">     -0.84910000</i>
   <i name="PARAM1">      0.12340000</i>
   <i name="PARAM2">      1.00000000</i>
   <i name="PARAM3">      0.00000000</i>
  </separator>
  <separator name="model GW" >
   <i type="int" name="MODEL_GW">     0</i>
   <i name="MODEL_EPS0">     14.72304762</i>
   <i name="MODEL_ALPHA">      1.00000000</i>
  </separator>
  <separator name="linear response parameters" >
   <i type="logical" name="LEPSILON"> F  </i>
   <i type="logical" name="LRPA"> F  </i>
   <i type="logical" name="LNABLA"> F  </i>
   <i type="logical" name="LVEL"> F  </i>
   <i type="int" name="KINTER">     0</i>
   <i name="CSHIFT">      0.10000000</i>
   <i name="OMEGAMAX">     -1.00000000</i>
   <i name="DEG_THRESHOLD">      0.00200000</i>
   <i name="RTIME">     -0.10000000</i>
   <i name="WPLASMAI">      0.00000000</i>
   <v name="DFIELD">      0.00000000      0.00000000      0.00000000</v>
   <v name="WPLASMA">      0.00000000      0.00000000      0.00000000      0.00000000      0.00000000      0.00000000      0.00000000      0.00000000      0.00000000</v>
  </separator>
  <separator name="orbital magnetization" >
   <i type="logical" name="NUCIND"> F  </i>
   <v name="MAGPOS">      0.00000000      0.00000000      0.00000000</v>
   <i type="logical" name="LNICSALL"> T  </i>
   <i type="logical" name="ORBITALMAG"> F  </i>
   <i type="logical" name="LMAGBLOCH"> F  </i>
   <i type="logical" name="LCHIMAG"> F  </i>
   <i type="logical" name="LGAUGE"> T  </i>
   <i type="int" name="MAGATOM">     0</i>
   <v name="MAGDIPOL">      0.00000000      0.00000000      0.00000000</v>
   <v name="AVECCONST">      0.00000000      0.00000000      0.00000000</v>
  </separator>
  <separator name="response functions" >
   <i type="logical" name="LADDER"> F  </i>
   <i type="logical" name="LRPAFORCE"> F  </i>
   <i type="logical" name="LFXC"> F  </i>
   <i type="logical" name="LHARTREE"> T  </i>
   <i type="int" name="IBSE">     0</i>
   <v type="int" name="KPOINT">    -1     0     0     0</v>
   <i type="logical" name="LTCTE"> F  </i>
   <i type="logical" name="LTETE"> F  </i>
   <i type="logical" name="LTRIPLET"> F  </i>
   <i type="logical" name="LFXCEPS"> F  </i>
   <i type="logical" name="LFXHEG"> F  </i>
   <i type="int" name="NATURALO">     2</i>
   <i type="logical" name="L2ORDER"> F  </i>
   <i type="logical" name="LMP2LT"> F  </i>
   <i type="logical" name="LUSEW"> F  </i>
   <i name="ENCUTGW">     -2.00000000</i>
   <i name="ENCUTGWSOFT">     -2.00000000</i>
   <i name="ENCUTLF">     -1.00000000</i>
   <i type="int" name="LMAXMP2">    -1</i>
   <i name="SCISSOR">      0.00000000</i>
   <i type="int" name="NOMEGA">     0</i>
   <i type="int" name="NOMEGAR">     0</i>
   <i type="int" name="NBANDSGW">    -1</i>
   <i type="int" name="NBANDSO">    -1</i>
   <i type="int" name="NBANDSV">    -1</i>
   <i type="int" name="NELM">   300</i>
   <i type="int" name="NELMHF">     1</i>
   <i type="int" name="DIM">     3</i>
   <i type="int" name="ANTIRES">     0</i>
   <i name="OMEGAMAX">    -30.00000000</i>
   <i name="OMEGAMIN">    -30.00000000</i>
   <i name="OMEGATL">   -200.00000000</i>
   <i type="int" name="OMEGAGRID">   140</i>
   <i name="CSHIFT">     -0.10000000</i>
   <i type="logical" name="SELFENERGY"> F  </i>
   <i type="logical" name="LSPECTRAL"> F  </i>
   <i type="logical" name="LSPECTRALGW"> F  </i>
   <i type="logical" name="LSINGLES"> F  </i>
   <i type="logical" name="LFERMIGW"> F  </i>
   <i type="logical" name="ODDONLYGW"> F  </i>
   <i type="logical" name="EVENONLYGW"> F  </i>
   <i type="int" name="NKREDLFX">     1</i>
   <i type="int" name="NKREDLFY">     1</i>
   <i type="int" name="NKREDLFZ">     1</i>
   <i type="int" name="MAXMEM">  2800</i>
   <i type="int" name="TELESCOPE">     0</i>
   <i type="int" name="TAUPAR">     1</i>
   <i type="int" name="OMEGAPAR">    -1</i>
   <i name="LAMBDA">      1.00000000</i>
  </separator>
  <separator name="External order field" >
   <i name="OFIELD_KAPPA">      0.00000000</i>
   <v name="OFIELD_K">      0.00000000      0.00000000      0.00000000</v>
   <i name="OFIELD_Q6_NEAR">      0.00000000</i>
   <i name="OFIELD_Q6_FAR">      0.00000000</i>
   <i name="OFIELD_A">      0.00000000</i>
  </separator>
 </parameters>
 <atominfo>
  <atoms>      30 </atoms>
  <types>       3 </types>
  <array name="atoms" >
   <dimension dim="1">ion</dimension>
   <field type="string">element</field>
   <field type="int">atomtype</field>
   <set>
    <rc><c>Mo</c><c>   1</c></rc>
    <rc><c>Mo</c><c>   1</c></rc>
    <rc><c>Mo</c><c>   1</c></rc>
    <rc><c>Mo</c><c>   1</c></rc>
    <rc><c>S </c><c>   2</c></rc>
    <rc><c>S </c><c>   2</c></rc>
    <rc><c>S </c><c>   2</c></rc>
    <rc><c>S </c><c>   2</c></rc>
    <rc><c>S </c><c>   2</c></rc>
    <rc><c>S </c><c>   2</c></rc>
    <rc><c>S </c><c>   2</c></rc>
    <rc><c>S </c><c>   2</c></rc>
    <rc><c>C </c><c>   3</c></rc>
    <rc><c>C </c><c>   3</c></rc>
    <rc><c>C </c><c>   3</c></rc>
    <rc><c>C </c><c>   3</c></rc>
    <rc><c>C </c><c>   3</c></rc>
    <rc><c>C </c><c>   3</c></rc>
    <rc><c>C </c><c>   3</c></rc>
    <rc><c>C </c><c>   3</c></rc>
    <rc><c>C </c><c>   3</c></rc>
    <rc><c>C </c><c>   3</c></rc>
    <rc><c>C </c><c>   3</c></rc>
    <rc><c>C </c><c>   3</c></rc>
    <rc><c>C </c><c>   3</c></rc>
    <rc><c>C </c><c>   3</c></rc>
    <rc><c>C </c><c>   3</c></rc>
    <rc><c>C </c><c>   3</c></rc>
    <rc><c>C </c><c>   3</c></rc>
    <rc><c>C </c><c>   3</c></rc>
   </set>
  </array>
  <array name="atomtypes" >
   <dimension dim="1">type</dimension>
   <field type="int">atomspertype</field>
   <field type="string">element</field>
   <field>mass</field>
   <field>valence</field>
   <field type="string">pseudopotential</field>
   <set>
    <rc><c>   4</c><c>Mo</c><c>     95.94000000</c><c>      6.00000000</c><c>  PAW_PBE Mo 08Apr2002                  </c></rc>
    <rc><c>   8</c><c>S </c><c>     32.06600000</c><c>      6.00000000</c><c>  PAW_PBE S 06Sep2000                   </c></rc>
    <rc><c>  18</c><c>C </c><c>     12.01100000</c><c>      4.00000000</c><c>  PAW_PBE C 08Apr2002                   </c></rc>
   </set>
  </array>
 </atominfo>
 <structure name="initialpos" >
  <crystal>
   <varray name="basis" >
    <v>       6.38063097       0.00000000       0.00000000 </v>
    <v>       3.19031401       5.52578936       0.00000000 </v>
    <v>       0.00000000       0.00000000      20.87900352 </v>
   </varray>
   <i name="volume">    736.15238097 </i>
   <varray name="rec_basis" >
    <v>       0.15672431      -0.09048477      -0.00000000 </v>
    <v>       0.00000000       0.18096962      -0.00000000 </v>
    <v>       0.00000000       0.00000000       0.04789501 </v>
   </varray>
  </crystal>
  <varray name="positions" >
   <v>       0.16666651       0.16666649       0.38133727 </v>
   <v>       0.66666651       0.16666649       0.38133727 </v>
   <v>       0.16666651       0.66666649       0.38133727 </v>
   <v>       0.66666651       0.66666649       0.38133727 </v>
   <v>       0.33333351       0.33333349       0.30638715 </v>
   <v>       0.83333351       0.33333349       0.30638715 </v>
   <v>       0.33333351       0.83333349       0.30638715 </v>
   <v>       0.83333351       0.83333349       0.30638715 </v>
   <v>       0.33333351       0.33333349       0.45628740 </v>
   <v>       0.83333351       0.33333349       0.45628740 </v>
   <v>       0.33333351       0.83333349       0.45628740 </v>
   <v>       0.83333351       0.83333349       0.45628740 </v>
   <v>       0.00000000       0.00000000       0.69361285 </v>
   <v>       0.33333333       0.00000000       0.69361285 </v>
   <v>       0.66666667       0.00000000       0.69361285 </v>
   <v>       0.00000000       0.33333333       0.69361285 </v>
   <v>       0.33333333       0.33333333       0.69361285 </v>
   <v>       0.66666667       0.33333333       0.69361285 </v>
   <v>       0.00000000       0.66666667       0.69361285 </v>
   <v>       0.33333333       0.66666667       0.69361285 </v>
   <v>       0.66666667       0.66666667       0.69361285 </v>
   <v>       0.11111100       0.11111100       0.69361285 </v>
   <v>       0.44444434       0.11111100       0.69361285 </v>
   <v>       0.77777767       0.11111100       0.69361285 </v>
   <v>       0.11111100       0.44444433       0.69361285 </v>
   <v>       0.44444434       0.44444433       0.69361285 </v>
   <v>       0.77777767       0.44444433       0.69361285 </v>
   <v>       0.11111100       0.77777766       0.69361285 </v>
   <v>       0.44444434       0.77777766       0.69361285 </v>
   <v>       0.77777767       0.77777766       0.69361285 </v>
  </varray>
 </structure>
 <calculation>
  <scstep>
   <time name="dav">    2.48    3.07</time>
   <time name="total">    2.51    3.10</time>
   <energy>
    <i name="alphaZ">    201.19316853 </i>
    <i name="ewald">  15942.61586675 </i>
    <i name="hartreedc"> -20871.06016371 </i>
    <i name="XCdc">    111.82887276 </i>
    <i name="pawpsdc">   4755.60212309 </i>
    <i name="pawaedc">  -4455.66411287 </i>
    <i name="eentropy">     -0.01720335 </i>
    <i name="bandstr">   -296.38059858 </i>
    <i name="atom">   5732.89781016 </i>
    <i name="e_fr_energy">   1121.01576279 </i>
    <i name="e_wo_entrp">   1121.03296614 </i>
    <i name="e_0_energy">   1121.02436447 </i>
   </energy>
  </scstep>
  <scstep>
   <time name="dav">    0.40    0.41</time>
   <time name="total">    0.41    0.41</time>
   <energy>
    <i name="e_fr_energy">   -129.19182095 </i>
    <i name="e_wo_entrp">   -129.18681416 </i>
    <i name="e_0_energy">   -129.18931756 </i>
   </energy>
  </scstep>
  <scstep>
   <time name="dav">    1.10    1.93</time>
   <time name="total">    1.10    1.93</time>
   <energy>
    <i name="e_fr_energy">   -268.19057633 </i>
    <i name="e_wo_entrp">   -268.17051153 </i>
    <i name="e_0_energy">   -268.18054393 </i>
   </energy>
  </scstep>
  <scstep>
   <time name="dav">    0.73    1.35</time>
   <time name="total">    0.73    1.35</time>
   <energy>
    <i name="e_fr_energy">   -272.61103068 </i>
    <i name="e_wo_entrp">   -272.58167801 </i>
    <i name="e_0_energy">   -272.59635435 </i>
   </energy>
  </scstep>
  <scstep>
   <time name="dav">    0.41    0.41</time>
   <time name="total">    0.44    0.44</time>
   <energy>
    <i name="e_fr_energy">   -272.72803223 </i>
    <i name="e_wo_entrp">   -272.69920811 </i>
    <i name="e_0_energy">   -272.71362017 </i>
   </energy>
  </scstep>
  <scstep>
   <time name="diag">    0.05    0.05</time>
   <time name="diis">    0.25    0.25</time>
   <time name="orth">    0.01    0.01</time>
   <time name="total">    0.36    0.36</time>
   <energy>
    <i name="e_fr_energy">   -319.71713282 </i>
    <i name="e_wo_entrp">   -319.68844679 </i>
    <i name="e_0_energy">   -319.70278981 </i>
   </energy>
  </scstep>
  <scstep>
   <time name="diag">    0.09    0.16</time>
   <time name="diis">    0.32    0.64</time>
   <time name="orth">    0.02    0.04</time>
   <time name="total">    0.51    0.98</time>
   <energy>
    <i name="e_fr_energy">   -228.29942370 </i>
    <i name="e_wo_entrp">   -228.29279094 </i>
    <i name="e_0_energy">   -228.29610732 </i>
   </energy>
  </scstep>
  <scstep>
   <time name="diag">    0.05    0.05</time>
   <time name="diis">    0.25    0.25</time>
   <time name="orth">    0.01    0.01</time>
   <time name="total">    0.62    0.96</time>
   <energy>
    <i name="e_fr_energy">   -222.33148129 </i>
    <i name="e_wo_entrp">   -222.32160051 </i>
    <i name="e_0_energy">   -222.32654090 </i>
   </energy>
  </scstep>
  <scstep>
   <time name="diag">    0.05    0.05</time>
   <time name="diis">    0.24    0.24</time>
   <time name="orth">    0.01    0.01</time>
   <time name="total">    0.35    0.35</time>
   <energy>
    <i name="e_fr_energy">   -220.13434219 </i>
    <i name="e_wo_entrp">   -220.12466437 </i>
    <i name="e_0_energy">   -220.12950328 </i>
   </energy>
  </scstep>
  <scstep>
   <time name="diag">    0.05    0.05</time>
   <time name="diis">    0.81    1.41</time>
   <time name="orth">    0.21    0.42</time>
   <time name="total">    1.56    2.84</time>
   <energy>
    <i name="e_fr_energy">   -219.85830161 </i>
    <i name="e_wo_entrp">   -219.85119110 </i>
    <i name="e_0_energy">   -219.85474635 </i>
   </energy>
  </scstep>
  <scstep>
   <time name="diag">    0.24    0.24</time>
   <time name="diis">    0.26    0.26</time>
   <time name="orth">    0.01    0.01</time>
   <time name="total">    0.87    1.02</time>
   <energy>
    <i name="e_fr_energy">   -219.76364149 </i>
    <i name="e_wo_entrp">   -219.75658913 </i>
    <i name="e_0_energy">   -219.76011531 </i>
   </energy>
  </scstep>
  <scstep>
   <time name="diag">    0.05    0.05</time>
   <time name="diis">    0.26    0.26</time>
   <time name="orth">    0.01    0.01</time>
   <time name="total">    0.37    0.37</time>
   <energy>
    <i name="e_fr_energy">   -219.67586269 </i>
    <i name="e_wo_entrp">   -219.66881032 </i>
    <i name="e_0_energy">   -219.67233650 </i>
   </energy>
  </scstep>
  <scstep>
   <time name="diag">    0.05    0.05</time>
   <time name="diis">    0.27    0.27</time>
   <time name="orth">    0.01    0.01</time>
   <time name="total">    0.37    0.38</time>
   <energy>
    <i name="e_fr_energy">   -219.61943616 </i>
    <i name="e_wo_entrp">   -219.61238380 </i>
    <i name="e_0_energy">   -219.61590998 </i>
   </energy>
  </scstep>
  <scstep>
   <time name="diag">    0.77    0.77</time>
   <time name="diis">    0.79    0.85</time>
   <time name="orth">    0.01    0.01</time>
   <time name="total">    1.61    1.68</time>
   <energy>
    <i name="e_fr_energy">   -219.53795331 </i>
    <i name="e_wo_entrp">   -219.53090094 </i>
    <i name="e_0_energy">   -219.53442713 </i>
   </energy>
  </scstep>
  <scstep>
   <time name="diag">    0.05    0.05</time>
   <time name="diis">    0.27    0.27</time>
   <time name="orth">    0.01    0.01</time>
   <time name="total">    0.37    0.38</time>
   <energy>
    <i name="e_fr_energy">   -219.50096131 </i>
    <i name="e_wo_entrp">   -219.49390894 </i>
    <i name="e_0_energy">   -219.49743512 </i>
   </energy>
  </scstep>
  <scstep>
   <time name="diag">    0.05    0.05</time>
   <time name="diis">    0.25    0.26</time>
   <time name="orth">    0.01    0.01</time>
   <time name="total">    0.36    0.36</time>
   <energy>
    <i name="e_fr_energy">   -219.40838422 </i>
    <i name="e_wo_entrp">   -219.40071493 </i>
    <i name="e_0_energy">   -219.40454958 </i>
   </energy>
  </scstep>
  <scstep>
   <time name="diag">    0.63    0.63</time>
   <time name="diis">    1.13    1.13</time>
   <time name="orth">    0.04    0.04</time>
   <time name="total">    2.64    2.65</time>
   <energy>
    <i name="e_fr_energy">   -219.43923170 </i>
    <i name="e_wo_entrp">   -219.42959025 </i>
    <i name="e_0_energy">   -219.43441097 </i>
   </energy>
  </scstep>
  <scstep>
   <time name="diag">    0.05    0.05</time>
   <time name="diis">    0.28    0.28</time>
   <time name="orth">    0.01    0.01</time>
   <time name="total">    0.52    0.68</time>
   <energy>
    <i name="e_fr_energy">   -219.44063227 </i>
    <i name="e_wo_entrp">   -219.43099081 </i>
    <i name="e_0_energy">   -219.43581154 </i>
   </energy>
  </scstep>
  <scstep>
   <time name="diag">    0.05    0.05</time>
   <time name="diis">    0.24    0.24</time>
   <time name="orth">    0.01    0.01</time>
   <time name="total">    0.35    0.35</time>
   <energy>
    <i name="e_fr_energy">   -219.44387511 </i>
    <i name="e_wo_entrp">   -219.43423366 </i>
    <i name="e_0_energy">   -219.43905439 </i>
   </energy>
  </scstep>
  <scstep>
   <time name="diag">    0.05    0.05</time>
   <time name="diis">    0.26    0.26</time>
   <time name="orth">    0.01    0.01</time>
   <time name="total">    0.36    0.36</time>
   <energy>
    <i name="e_fr_energy">   -219.41833590 </i>
    <i name="e_wo_entrp">   -219.40868377 </i>
    <i name="e_0_energy">   -219.41350983 </i>
   </energy>
  </scstep>
  <scstep>
   <time name="diag">    0.06    0.07</time>
   <time name="diis">    0.36    0.72</time>
   <time name="orth">    0.01    0.02</time>
   <time name="total">    0.49    0.93</time>
   <energy>
    <i name="e_fr_energy">   -219.41816245 </i>
    <i name="e_wo_entrp">   -219.41106937 </i>
    <i name="e_0_energy">   -219.41461591 </i>
   </energy>
  </scstep>
  <scstep>
   <time name="diag">    0.71    0.78</time>
   <time name="diis">    0.25    0.25</time>
   <time name="orth">    0.01    0.01</time>
   <time name="total">    1.15    1.33</time>
   <energy>
    <i name="e_fr_energy">   -219.41381531 </i>
    <i name="e_wo_entrp">   -219.40306170 </i>
    <i name="e_0_energy">   -219.40843850 </i>
   </energy>
  </scstep>
  <scstep>
   <time name="diag">    0.05    0.05</time>
   <time name="diis">    0.23    0.23</time>
   <time name="orth">    0.01    0.01</time>
   <time name="total">    0.33    0.34</time>
   <energy>
    <i name="e_fr_energy">   -219.41434426 </i>
    <i name="e_wo_entrp">   -219.40347365 </i>
    <i name="e_0_energy">   -219.40890896 </i>
   </energy>
  </scstep>
  <scstep>
   <time name="diag">    0.05    0.05</time>
   <time name="diis">    0.26    0.26</time>
   <time name="orth">    0.01    0.01</time>
   <time name="total">    0.84    0.84</time>
   <energy>
    <i name="e_fr_energy">   -219.41404605 </i>
    <i name="e_wo_entrp">   -219.40462602 </i>
    <i name="e_0_energy">   -219.40933604 </i>
   </energy>
  </scstep>
  <scstep>
   <time name="diag">    0.68    0.68</time>
   <time name="diis">    0.96    0.96</time>
   <time name="orth">    0.05    0.05</time>
   <time name="total">    2.01    2.02</time>
   <energy>
    <i name="e_fr_energy">   -219.41388897 </i>
    <i name="e_wo_entrp">   -219.40395705 </i>
    <i name="e_0_energy">   -219.40892301 </i>
   </energy>
  </scstep>
  <scstep>
   <time name="diag">    0.23    0.23</time>
   <time name="diis">    0.22    0.22</time>
   <time name="orth">    0.01    0.01</time>
   <time name="total">    0.67    0.68</time>
   <energy>
    <i name="e_fr_energy">   -219.41383831 </i>
    <i name="e_wo_entrp">   -219.40364834 </i>
    <i name="e_0_energy">   -219.40874332 </i>
   </energy>
  </scstep>
  <scstep>
   <time name="diag">    0.05    0.05</time>
   <time name="diis">    0.22    0.22</time>
   <time name="orth">    0.01    0.01</time>
   <time name="total">    0.33    0.33</time>
   <energy>
    <i name="e_fr_energy">   -219.41258432 </i>
    <i name="e_wo_entrp">   -219.40050758 </i>
    <i name="e_0_energy">   -219.40654595 </i>
   </energy>
  </scstep>
  <scstep>
   <time name="diag">    0.05    0.05</time>
   <time name="diis">    0.22    0.22</time>
   <time name="orth">    0.01    0.01</time>
   <time name="total">    0.32    0.32</time>
   <energy>
    <i name="e_fr_energy">   -219.41292669 </i>
    <i name="e_wo_entrp">   -219.40056083 </i>
    <i name="e_0_energy">   -219.40674376 </i>
   </energy>
  </scstep>
  <scstep>
   <time name="diag">    0.05    0.05</time>
   <time name="diis">    0.20    0.20</time>
   <time name="orth">    0.01    0.01</time>
   <time name="total">    0.34    0.34</time>
   <energy>
    <i name="e_fr_energy">   -219.41278225 </i>
    <i name="e_wo_entrp">   -219.40048666 </i>
    <i name="e_0_energy">   -219.40663445 </i>
   </energy>
  </scstep>
  <scstep>
   <time name="diag">    0.12    0.12</time>
   <time name="diis">    0.26    0.26</time>
   <time name="orth">    0.02    0.02</time>
   <time name="total">    0.50    0.50</time>
   <energy>
    <i name="e_fr_energy">   -219.41281566 </i>
    <i name="e_wo_entrp">   -219.40052784 </i>
    <i name="e_0_energy">   -219.40667175 </i>
   </energy>
  </scstep>
  <scstep>
   <time name="diag">    0.10    0.10</time>
   <time name="diis">    0.30    0.30</time>
   <time name="orth">    0.02    0.02</time>
   <time name="total">    0.52    0.52</time>
   <energy>
    <i name="e_fr_energy">   -219.41283170 </i>
    <i name="e_wo_entrp">   -219.40060262 </i>
    <i name="e_0_energy">   -219.40671716 </i>
   </energy>
  </scstep>
  <scstep>
   <time name="diag">    0.12    0.12</time>
   <time name="diis">    0.26    0.26</time>
   <time name="orth">    0.02    0.02</time>
   <time name="total">    0.44    0.44</time>
   <energy>
    <i name="alphaZ">    201.19316853 </i>
    <i name="ewald">  15942.61586675 </i>
    <i name="hartreedc"> -21440.25269091 </i>
    <i name="XCdc">    133.37801816 </i>
    <i name="pawpsdc">  21967.21660552 </i>
    <i name="pawaedc"> -21679.02276369 </i>
    <i name="eentropy">     -0.01217324 </i>
    <i name="bandstr">  -1077.42668151 </i>
    <i name="atom">   5732.89781016 </i>
    <i name="e_fr_energy">   -219.41284022 </i>
    <i name="e_wo_entrp">   -219.40066698 </i>
    <i name="e_0_energy">   -219.40675360 </i>
   </energy>
  </scstep>
  <structure>
   <crystal>
    <varray name="basis" >
     <v>       6.38063097       0.00000000       0.00000000 </v>
     <v>       3.19031401       5.52578936       0.00000000 </v>
     <v>       0.00000000       0.00000000      20.87900352 </v>
    </varray>
    <i name="volume">    736.15238097 </i>
    <varray name="rec_basis" >
     <v>       0.15672431      -0.09048477      -0.00000000 </v>
     <v>       0.00000000       0.18096962      -0.00000000 </v>
     <v>       0.00000000       0.00000000       0.04789501 </v>
    </varray>
   </crystal>
   <varray name="positions" >
    <v>       0.16666651       0.16666649       0.38133727 </v>
    <v>       0.66666651       0.16666649       0.38133727 </v>
    <v>       0.16666651       0.66666649       0.38133727 </v>
    <v>       0.66666651       0.66666649       0.38133727 </v>
    <v>       0.33333351       0.33333349       0.30638715 </v>
    <v>       0.83333351       0.33333349       0.30638715 </v>
    <v>       0.33333351       0.83333349       0.30638715 </v>
    <v>       0.83333351       0.83333349       0.30638715 </v>
    <v>       0.33333351       0.33333349       0.45628740 </v>
    <v>       0.83333351       0.33333349       0.45628740 </v>
    <v>       0.33333351       0.83333349       0.45628740 </v>
    <v>       0.83333351       0.83333349       0.45628740 </v>
    <v>       0.00000000       0.00000000       0.69361285 </v>
    <v>       0.33333333       0.00000000       0.69361285 </v>
    <v>       0.66666667       0.00000000       0.69361285 </v>
    <v>       0.00000000       0.33333333       0.69361285 </v>
    <v>       0.33333333       0.33333333       0.69361285 </v>
    <v>       0.66666667       0.33333333       0.69361285 </v>
    <v>       0.00000000       0.66666667       0.69361285 </v>
    <v>       0.33333333       0.66666667       0.69361285 </v>
    <v>       0.66666667       0.66666667       0.69361285 </v>
    <v>       0.11111100       0.11111100       0.69361285 </v>
    <v>       0.44444434       0.11111100       0.69361285 </v>
    <v>       0.77777767       0.11111100       0.69361285 </v>
    <v>       0.11111100       0.44444433       0.69361285 </v>
    <v>       0.44444434       0.44444433       0.69361285 </v>
    <v>       0.77777767       0.44444433       0.69361285 </v>
    <v>       0.11111100       0.77777766       0.69361285 </v>
    <v>       0.44444434       0.77777766       0.69361285 </v>
    <v>       0.77777767       0.77777766       0.69361285 </v>
   </varray>
  </structure>
  <varray name="forces" >
   <v>       0.00002652       0.00001531       0.01433773 </v>
   <v>      -0.00002652       0.00001531       0.01433773 </v>
   <v>       0.00000000      -0.00003062       0.01433773 </v>
   <v>       0.00000000       0.00000000       0.01431980 </v>
   <v>       0.00000000       0.00000000       0.10490766 </v>
   <v>       0.00000000      -0.00002374       0.10489220 </v>
   <v>      -0.00002056       0.00001187       0.10489220 </v>
   <v>       0.00002056       0.00001187       0.10489220 </v>
   <v>      -0.00000000      -0.00000000      -0.10973248 </v>
   <v>       0.00000000      -0.00003724      -0.10970210 </v>
   <v>      -0.00003225       0.00001862      -0.10970210 </v>
   <v>       0.00003225       0.00001862      -0.10970210 </v>
   <v>      -0.00000000      -0.00000000      -0.00238031 </v>
   <v>      -0.00000435      -0.00012406      -0.00225387 </v>
   <v>       0.00000435      -0.00012406      -0.00225387 </v>
   <v>      -0.00010961       0.00005826      -0.00225387 </v>
   <v>      -0.00000000      -0.00000000      -0.00240610 </v>
   <v>       0.00010961       0.00005826      -0.00225387 </v>
   <v>      -0.00010526       0.00006579      -0.00225387 </v>
   <v>       0.00010526       0.00006579      -0.00225387 </v>
   <v>      -0.00000000      -0.00000000      -0.00197286 </v>
   <v>       0.00003696       0.00002134      -0.00199973 </v>
   <v>      -0.00000000       0.00012001      -0.00181839 </v>
   <v>      -0.00003696       0.00002134      -0.00199973 </v>
   <v>       0.00010394      -0.00006001      -0.00181839 </v>
   <v>      -0.00010394      -0.00006001      -0.00181839 </v>
   <v>       0.00000000      -0.00012475      -0.00211386 </v>
   <v>       0.00000000      -0.00004267      -0.00199973 </v>
   <v>      -0.00010804       0.00006237      -0.00211386 </v>
   <v>       0.00010804       0.00006237      -0.00211386 </v>
  </varray>
  <varray name="stress" >
   <v>     544.49136669      -0.00014501      -0.00000000 </v>
   <v>      -0.00014501     544.49153412      -0.00000000 </v>
   <v>      -0.00000000      -0.00000000      -9.60561073 </v>
  </varray>
  <energy>
   <i name="e_fr_energy">   -219.41284022 </i>
   <i name="e_wo_entrp">   -219.40675360 </i>
   <i name="e_0_energy">     -0.01217324 </i>
  </energy>
  <time name="totalsc">   30.38   36.45</time>
  <eigenvalues>
   <array>
    <dimension dim="1">band</dimension>
    <dimension dim="2">kpoint</dimension>
    <dimension dim="3">spin</dimension>
    <field>eigene</field>
    <field>occ</field>
    <set>
     <set comment="spin 1">
      <set comment="kpoint 1">
       <r>  -21.9540    1.0000 </r>
       <r>  -18.6699    1.0000 </r>
       <r>  -18.6699    1.0000 </r>
       <r>  -18.6699    1.0000 </r>
       <r>  -18.6699    1.0000 </r>
       <r>  -18.6699    1.0000 </r>
       <r>  -18.6699    1.0000 </r>
       <r>  -14.4740    1.0000 </r>
       <r>  -13.2725    1.0000 </r>
       <r>  -12.8540    1.0000 </r>
       <r>  -12.8540    1.0000 </r>
       <r>  -12.6876    1.0000 </r>
       <r>  -12.6876    1.0000 </r>
       <r>  -12.6876    1.0000 </r>
       <r>  -12.4428    1.0000 </r>
       <r>  -12.4428    1.0000 </r>
       <r>  -12.4428    1.0000 </r>
       <r>  -12.3971    1.0000 </r>
       <r>  -12.3971    1.0000 </r>
       <r>  -12.3970    1.0000 </r>
       <r>  -12.3970    1.0000 </r>
       <r>   -9.7145    1.0000 </r>
       <r>   -9.4906    1.0000 </r>
       <r>   -9.4906    1.0000 </r>
       <r>   -9.4906    1.0000 </r>
       <r>   -9.4905    1.0000 </r>
       <r>   -9.4905    1.0000 </r>
       <r>   -9.4905    1.0000 </r>
       <r>   -6.1529    1.0000 </r>
       <r>   -6.1529    1.0000 </r>
       <r>   -6.1529    1.0000 </r>
       <r>   -6.0040    1.0000 </r>
       <r>   -5.4249    1.0000 </r>
       <r>   -5.4249    1.0000 </r>
       <r>   -5.4249    1.0000 </r>
       <r>   -5.4246    1.0000 </r>
       <r>   -5.4245    1.0000 </r>
       <r>   -5.4245    1.0000 </r>
       <r>   -5.2946    1.0000 </r>
       <r>   -5.2945    1.0000 </r>
       <r>   -5.2945    1.0000 </r>
       <r>   -5.2945    1.0000 </r>
       <r>   -5.2945    1.0000 </r>
       <r>   -5.2945    1.0000 </r>
       <r>   -5.1975    1.0000 </r>
       <r>   -5.1975    1.0000 </r>
       <r>   -5.1975    1.0000 </r>
       <r>   -4.4875    1.0000 </r>
       <r>   -4.4875    1.0000 </r>
       <r>   -4.4875    1.0000 </r>
       <r>   -3.5632    1.0000 </r>
       <r>   -3.5632    1.0000 </r>
       <r>   -3.5632    1.0000 </r>
       <r>   -3.0164    1.0000 </r>
       <r>   -3.0164    1.0000 </r>
       <r>   -2.3175    1.0000 </r>
       <r>   -2.3175    1.0000 </r>
       <r>   -2.3175    1.0000 </r>
       <r>   -2.2207    1.0000 </r>
       <r>   -1.9115    1.0000 </r>
       <r>   -1.9114    1.0000 </r>
       <r>   -1.3930    1.0000 </r>
       <r>   -1.3930    1.0000 </r>
       <r>   -1.3930    1.0000 </r>
       <r>   -1.1457    1.0000 </r>
       <r>   -1.1457    1.0000 </r>
       <r>   -1.0683    1.0000 </r>
       <r>   -1.0683    1.0000 </r>
       <r>   -1.0683    1.0000 </r>
       <r>   -0.4651    1.0000 </r>
       <r>    1.3907    0.2622 </r>
       <r>    1.3908    0.2621 </r>
       <r>    1.3908    0.2619 </r>
       <r>    1.3908    0.2618 </r>
       <r>    1.7557    0.0000 </r>
       <r>    1.7557    0.0000 </r>
       <r>    1.7557    0.0000 </r>
       <r>    2.2698    0.0000 </r>
       <r>    2.2698    0.0000 </r>
       <r>    2.2698    0.0000 </r>
       <r>    2.3274    0.0000 </r>
       <r>    2.3275    0.0000 </r>
       <r>    2.5463    0.0000 </r>
       <r>    2.5464    0.0000 </r>
       <r>    3.3915    0.0000 </r>
       <r>    8.1903    0.0000 </r>
       <r>    8.1870    0.0000 </r>
       <r>    8.1952    0.0000 </r>
       <r>    8.2041    0.0000 </r>
       <r>    8.2225    0.0000 </r>
      </set>
      <set comment="kpoint 2">
       <r>  -21.7456    1.0000 </r>
       <r>  -20.0932    1.0000 </r>
       <r>  -19.2774    1.0000 </r>
       <r>  -19.2774    1.0000 </r>
       <r>  -17.6692    1.0000 </r>
       <r>  -17.6692    1.0000 </r>
       <r>  -16.8802    1.0000 </r>
       <r>  -14.5862    1.0000 </r>
       <r>  -14.5862    1.0000 </r>
       <r>  -14.2599    1.0000 </r>
       <r>  -13.1694    1.0000 </r>
       <r>  -13.0159    1.0000 </r>
       <r>  -12.7029    1.0000 </r>
       <r>  -12.7029    1.0000 </r>
       <r>  -12.5877    1.0000 </r>
       <r>  -12.4341    1.0000 </r>
       <r>  -12.4341    1.0000 </r>
       <r>  -12.3142    1.0000 </r>
       <r>  -12.3142    1.0000 </r>
       <r>  -12.1766    1.0000 </r>
       <r>  -10.7577    1.0000 </r>
       <r>  -10.7577    1.0000 </r>
       <r>  -10.3582    1.0000 </r>
       <r>  -10.3582    1.0000 </r>
       <r>   -9.4373    1.0000 </r>
       <r>   -8.0358    1.0000 </r>
       <r>   -8.0358    1.0000 </r>
       <r>   -7.2551    1.0000 </r>
       <r>   -6.6874    1.0000 </r>
       <r>   -6.3147    1.0000 </r>
       <r>   -6.3147    1.0000 </r>
       <r>   -6.1929    1.0000 </r>
       <r>   -6.1929    1.0000 </r>
       <r>   -5.9811    1.0000 </r>
       <r>   -5.8648    1.0000 </r>
       <r>   -5.8648    1.0000 </r>
       <r>   -5.8181    1.0000 </r>
       <r>   -5.7596    1.0000 </r>
       <r>   -5.4325    1.0000 </r>
       <r>   -5.4325    1.0000 </r>
       <r>   -5.2490    1.0000 </r>
       <r>   -5.2490    1.0000 </r>
       <r>   -4.8320    1.0000 </r>
       <r>   -4.3644    1.0000 </r>
       <r>   -4.3621    1.0000 </r>
       <r>   -4.3621    1.0000 </r>
       <r>   -4.2191    1.0000 </r>
       <r>   -4.1784    1.0000 </r>
       <r>   -4.1784    1.0000 </r>
       <r>   -3.5953    1.0000 </r>
       <r>   -3.5953    1.0000 </r>
       <r>   -3.4823    1.0000 </r>
       <r>   -3.3824    1.0000 </r>
       <r>   -3.3106    1.0000 </r>
       <r>   -2.9909    1.0000 </r>
       <r>   -2.7830    1.0000 </r>
       <r>   -2.3469    1.0000 </r>
       <r>   -2.3469    1.0000 </r>
       <r>   -2.2480    1.0000 </r>
       <r>   -2.2231    1.0000 </r>
       <r>   -2.2231    1.0000 </r>
       <r>   -2.1802    1.0000 </r>
       <r>   -1.9574    1.0000 </r>
       <r>   -1.6817    1.0000 </r>
       <r>   -1.6160    1.0000 </r>
       <r>   -1.5179    1.0000 </r>
       <r>   -1.3441    1.0000 </r>
       <r>   -0.9067    1.0000 </r>
       <r>   -0.9067    1.0000 </r>
       <r>   -0.5937    1.0000 </r>
       <r>   -0.5916    1.0000 </r>
       <r>   -0.5916    1.0000 </r>
       <r>    1.7279    0.0000 </r>
       <r>    1.7695    0.0000 </r>
       <r>    1.7695    0.0000 </r>
       <r>    1.9939    0.0000 </r>
       <r>    2.0188    0.0000 </r>
       <r>    2.1113    0.0000 </r>
       <r>    2.2781    0.0000 </r>
       <r>    2.2781    0.0000 </r>
       <r>    2.3102    0.0000 </r>
       <r>    2.6849    0.0000 </r>
       <r>    3.1206    0.0000 </r>
       <r>    3.1296    0.0000 </r>
       <r>    3.1978    0.0000 </r>
       <r>    3.1978    0.0000 </r>
       <r>    3.6770    0.0000 </r>
       <r>    4.9201    0.0000 </r>
       <r>    6.4814    0.0000 </r>
       <r>    6.4816    0.0000 </r>
      </set>
      <set comment="kpoint 3">
       <r>  -21.1229    1.0000 </r>
       <r>  -21.1229    1.0000 </r>
       <r>  -19.4811    1.0000 </r>
       <r>  -19.4811    1.0000 </r>
       <r>  -16.2957    1.0000 </r>
       <r>  -16.2957    1.0000 </r>
       <r>  -16.2956    1.0000 </r>
       <r>  -16.2956    1.0000 </r>
       <r>  -15.1011    1.0000 </r>
       <r>  -14.2645    1.0000 </r>
       <r>  -13.6912    1.0000 </r>
       <r>  -13.6912    1.0000 </r>
       <r>  -12.8987    1.0000 </r>
       <r>  -12.8987    1.0000 </r>
       <r>  -12.7178    1.0000 </r>
       <r>  -12.7178    1.0000 </r>
       <r>  -12.4253    1.0000 </r>
       <r>  -12.4253    1.0000 </r>
       <r>  -11.7191    1.0000 </r>
       <r>  -11.7190    1.0000 </r>
       <r>  -11.7190    1.0000 </r>
       <r>  -11.7190    1.0000 </r>
       <r>   -8.6107    1.0000 </r>
       <r>   -8.6107    1.0000 </r>
       <r>   -8.1707    1.0000 </r>
       <r>   -8.1707    1.0000 </r>
       <r>   -8.1707    1.0000 </r>
       <r>   -8.1707    1.0000 </r>
       <r>   -6.8505    1.0000 </r>
       <r>   -6.8505    1.0000 </r>
       <r>   -6.4517    1.0000 </r>
       <r>   -6.4517    1.0000 </r>
       <r>   -6.2248    1.0000 </r>
       <r>   -6.2248    1.0000 </r>
       <r>   -6.2154    1.0000 </r>
       <r>   -5.5037    1.0000 </r>
       <r>   -5.5037    1.0000 </r>
       <r>   -5.3877    1.0000 </r>
       <r>   -5.3877    1.0000 </r>
       <r>   -5.2941    1.0000 </r>
       <r>   -5.2941    1.0000 </r>
       <r>   -4.2216    1.0000 </r>
       <r>   -4.2216    1.0000 </r>
       <r>   -4.0407    1.0000 </r>
       <r>   -4.0407    1.0000 </r>
       <r>   -4.0243    1.0000 </r>
       <r>   -4.0243    1.0000 </r>
       <r>   -3.9639    1.0000 </r>
       <r>   -3.9639    1.0000 </r>
       <r>   -3.6534    1.0000 </r>
       <r>   -3.6534    1.0000 </r>
       <r>   -3.3245    1.0000 </r>
       <r>   -3.3245    1.0000 </r>
       <r>   -2.9040    1.0000 </r>
       <r>   -2.9040    1.0000 </r>
       <r>   -2.8844    1.0000 </r>
       <r>   -2.8844    1.0000 </r>
       <r>   -2.5234    1.0000 </r>
       <r>   -2.5234    1.0000 </r>
       <r>   -2.5232    1.0000 </r>
       <r>   -2.5232    1.0000 </r>
       <r>   -2.1995    1.0000 </r>
       <r>   -2.1995    1.0000 </r>
       <r>   -2.0881    1.0000 </r>
       <r>   -2.0881    1.0000 </r>
       <r>   -1.9727    1.0000 </r>
       <r>   -1.7739    1.0000 </r>
       <r>   -1.7737    1.0000 </r>
       <r>   -1.1482    1.0000 </r>
       <r>   -1.1481    1.0000 </r>
       <r>   -0.9305    1.0000 </r>
       <r>   -0.9305    1.0000 </r>
       <r>    1.6981    0.0000 </r>
       <r>    1.6981    0.0000 </r>
       <r>    1.7126    0.0000 </r>
       <r>    1.7126    0.0000 </r>
       <r>    1.9004    0.0000 </r>
       <r>    1.9004    0.0000 </r>
       <r>    2.3246    0.0000 </r>
       <r>    2.3246    0.0000 </r>
       <r>    2.4253    0.0000 </r>
       <r>    2.4254    0.0000 </r>
       <r>    2.6200    0.0000 </r>
       <r>    2.6201    0.0000 </r>
       <r>    3.1562    0.0000 </r>
       <r>    3.2995    0.0000 </r>
       <r>    4.8314    0.0000 </r>
       <r>    4.8315    0.0000 </r>
       <r>    4.8315    0.0000 </r>
       <r>    4.8316    0.0000 </r>
      </set>
      <set comment="kpoint 4">
       <r>  -21.3301    1.0000 </r>
       <r>  -20.5040    1.0000 </r>
       <r>  -20.5039    1.0000 </r>
       <r>  -18.0691    1.0000 </r>
       <r>  -18.0690    1.0000 </r>
       <r>  -16.4897    1.0000 </r>
       <r>  -15.7324    1.0000 </r>
       <r>  -15.7324    1.0000 </r>
       <r>  -14.4944    1.0000 </r>
       <r>  -13.8671    1.0000 </r>
       <r>  -13.7987    1.0000 </r>
       <r>  -13.2888    1.0000 </r>
       <r>  -13.2888    1.0000 </r>
       <r>  -13.2335    1.0000 </r>
       <r>  -13.2335    1.0000 </r>
       <r>  -12.9811    1.0000 </r>
       <r>  -12.6803    1.0000 </r>
       <r>  -12.6802    1.0000 </r>
       <r>  -12.4830    1.0000 </r>
       <r>  -12.3050    1.0000 </r>
       <r>  -10.0579    1.0000 </r>
       <r>   -9.8216    1.0000 </r>
       <r>   -9.1675    1.0000 </r>
       <r>   -9.1675    1.0000 </r>
       <r>   -8.8856    1.0000 </r>
       <r>   -8.3925    1.0000 </r>
       <r>   -7.7931    1.0000 </r>
       <r>   -7.7930    1.0000 </r>
       <r>   -7.5053    1.0000 </r>
       <r>   -7.5053    1.0000 </r>
       <r>   -6.7709    1.0000 </r>
       <r>   -6.7708    1.0000 </r>
       <r>   -5.6790    1.0000 </r>
       <r>   -5.4627    1.0000 </r>
       <r>   -5.4627    1.0000 </r>
       <r>   -5.4104    1.0000 </r>
       <r>   -5.3717    1.0000 </r>
       <r>   -5.3717    1.0000 </r>
       <r>   -5.3359    1.0000 </r>
       <r>   -4.6388    1.0000 </r>
       <r>   -4.6383    1.0000 </r>
       <r>   -4.4855    1.0000 </r>
       <r>   -4.4854    1.0000 </r>
       <r>   -4.3156    1.0000 </r>
       <r>   -4.2331    1.0000 </r>
       <r>   -4.2331    1.0000 </r>
       <r>   -4.1954    1.0000 </r>
       <r>   -4.1954    1.0000 </r>
       <r>   -4.0523    1.0000 </r>
       <r>   -3.6565    1.0000 </r>
       <r>   -3.5801    1.0000 </r>
       <r>   -3.5801    1.0000 </r>
       <r>   -3.5477    1.0000 </r>
       <r>   -3.4254    1.0000 </r>
       <r>   -3.2148    1.0000 </r>
       <r>   -3.0676    1.0000 </r>
       <r>   -2.7391    1.0000 </r>
       <r>   -2.6718    1.0000 </r>
       <r>   -2.4746    1.0000 </r>
       <r>   -2.4468    1.0000 </r>
       <r>   -2.3535    1.0000 </r>
       <r>   -2.3535    1.0000 </r>
       <r>   -2.1790    1.0000 </r>
       <r>   -2.1789    1.0000 </r>
       <r>   -1.7424    1.0000 </r>
       <r>   -1.7423    1.0000 </r>
       <r>   -1.3838    1.0000 </r>
       <r>   -1.2313    1.0000 </r>
       <r>   -1.2312    1.0000 </r>
       <r>   -1.1250    1.0000 </r>
       <r>   -0.9535    1.0000 </r>
       <r>   -0.5637    1.0000 </r>
       <r>    1.4036    0.1587 </r>
       <r>    1.5512    0.0000 </r>
       <r>    1.5513    0.0000 </r>
       <r>    1.6227    0.0000 </r>
       <r>    2.0174    0.0000 </r>
       <r>    2.0180    0.0000 </r>
       <r>    2.0180    0.0000 </r>
       <r>    2.0338    0.0000 </r>
       <r>    2.4968    0.0000 </r>
       <r>    2.4968    0.0000 </r>
       <r>    2.6752    0.0000 </r>
       <r>    2.8942    0.0000 </r>
       <r>    3.1201    0.0000 </r>
       <r>    3.6956    0.0000 </r>
       <r>    3.6956    0.0000 </r>
       <r>    5.4764    0.0000 </r>
       <r>    7.8049    0.0000 </r>
       <r>    7.8055    0.0000 </r>
      </set>
     </set>
    </set>
   </array>
  </eigenvalues>
  <separator name="orbital magnetization" >
   <v name="MAGDIPOLOUT">      0.00000000      0.00000000      0.00000000</v>
  </separator>
  <dos>
   <i name="efermi">      1.36824348 </i>
   <total>
    <array>
     <dimension dim="1">gridpoints</dimension>
     <dimension dim="2">spin</dimension>
     <field>energy</field>
     <field>total</field>
     <field>integrated</field>
     <set>
      <set comment="spin 1">
       <r>   -23.4628     0.0000     0.0000 </r>
       <r>   -23.3522     0.0000     0.0000 </r>
       <r>   -23.2415     0.0000     0.0000 </r>
       <r>   -23.1309     0.0000     0.0000 </r>
       <r>   -23.0202     0.0000     0.0000 </r>
       <r>   -22.9096     0.0000     0.0000 </r>
       <r>   -22.7989     0.0000     0.0000 </r>
       <r>   -22.6883     0.0000     0.0000 </r>
       <r>   -22.5776     0.0000     0.0000 </r>
       <r>   -22.4670     0.0000     0.0000 </r>
       <r>   -22.3563     0.0000     0.0000 </r>
       <r>   -22.2457     0.0000     0.0000 </r>
       <r>   -22.1350     0.0000     0.0000 </r>
       <r>   -22.0244     0.0262     0.0029 </r>
       <r>   -21.9138     0.9594     0.1091 </r>
       <r>   -21.8031     0.4969     0.1640 </r>
       <r>   -21.6925     5.9764     0.8253 </r>
       <r>   -21.5818     0.4490     0.8750 </r>
       <r>   -21.4712     0.0002     0.8750 </r>
       <r>   -21.3605     1.3225     1.0214 </r>
       <r>   -21.2499     5.3781     1.6164 </r>
       <r>   -21.1392     2.2641     1.8669 </r>
       <r>   -21.0286     4.5659     2.3721 </r>
       <r>   -20.9179     0.0258     2.3750 </r>
       <r>   -20.8073     0.0000     2.3750 </r>
       <r>   -20.6966     0.0000     2.3750 </r>
       <r>   -20.5860     0.1378     2.3902 </r>
       <r>   -20.4753    10.5831     3.5612 </r>
       <r>   -20.3647     2.8351     3.8749 </r>
       <r>   -20.2540     0.0006     3.8750 </r>
       <r>   -20.1434     0.5269     3.9333 </r>
       <r>   -20.0328     5.9551     4.5922 </r>
       <r>   -19.9221     0.2963     4.6250 </r>
       <r>   -19.8115     0.0000     4.6250 </r>
       <r>   -19.7008     0.0000     4.6250 </r>
       <r>   -19.5902     0.0069     4.6258 </r>
       <r>   -19.4795     3.5021     5.0133 </r>
       <r>   -19.3689     3.3301     5.3817 </r>
       <r>   -19.2582     9.5197     6.4350 </r>
       <r>   -19.1476     3.9746     6.8748 </r>
       <r>   -19.0369     0.0016     6.8750 </r>
       <r>   -18.9263     0.0000     6.8750 </r>
       <r>   -18.8156     0.0001     6.8750 </r>
       <r>   -18.7050     1.0882     6.9954 </r>
       <r>   -18.5943     5.5796     7.6128 </r>
       <r>   -18.4837     0.1104     7.6250 </r>
       <r>   -18.3730     0.0000     7.6250 </r>
       <r>   -18.2624     0.0000     7.6250 </r>
       <r>   -18.1517     0.1310     7.6395 </r>
       <r>   -18.0411    10.5162     8.8031 </r>
       <r>   -17.9305     2.9088     9.1249 </r>
       <r>   -17.8198     0.0007     9.1250 </r>
       <r>   -17.7092     1.7531     9.3190 </r>
       <r>   -17.5985    11.4949    10.5909 </r>
       <r>   -17.4879     0.3084    10.6250 </r>
       <r>   -17.3772     0.0000    10.6250 </r>
       <r>   -17.2666     0.0000    10.6250 </r>
       <r>   -17.1559     0.0000    10.6250 </r>
       <r>   -17.0453     0.0000    10.6250 </r>
       <r>   -16.9346     0.4184    10.6713 </r>
       <r>   -16.8240     5.9802    11.3330 </r>
       <r>   -16.7133     0.3797    11.3750 </r>
       <r>   -16.6027     0.0047    11.3755 </r>
       <r>   -16.4920     3.2080    11.7305 </r>
       <r>   -16.3814     3.6620    12.1357 </r>
       <r>   -16.2707    10.2004    13.2643 </r>
       <r>   -16.1601     3.2588    13.6249 </r>
       <r>   -16.0494     0.0009    13.6250 </r>
       <r>   -15.9388     0.0000    13.6250 </r>
       <r>   -15.8282     0.0457    13.6301 </r>
       <r>   -15.7175     8.9397    14.6192 </r>
       <r>   -15.6069     4.5686    15.1247 </r>
       <r>   -15.4962     0.0026    15.1250 </r>
       <r>   -15.3856     0.0000    15.1250 </r>
       <r>   -15.2749     0.0000    15.1250 </r>
       <r>   -15.1643     0.1251    15.1388 </r>
       <r>   -15.0536     2.9597    15.4663 </r>
       <r>   -14.9430     0.3044    15.5000 </r>
       <r>   -14.8323     0.0000    15.5000 </r>
       <r>   -14.7217     0.0009    15.5001 </r>
       <r>   -14.6110     3.2777    15.8628 </r>
       <r>   -14.5004    13.3629    17.3413 </r>
       <r>   -14.3897     4.8044    17.8729 </r>
       <r>   -14.2791     3.1594    18.2225 </r>
       <r>   -14.1684     6.9826    18.9951 </r>
       <r>   -14.0578     0.0441    19.0000 </r>
       <r>   -13.9472     0.0802    19.0089 </r>
       <r>   -13.8365     6.3553    19.7121 </r>
       <r>   -13.7259     8.0958    20.6078 </r>
       <r>   -13.6152     5.6965    21.2381 </r>
       <r>   -13.5046     0.1071    21.2500 </r>
       <r>   -13.3939     0.0203    21.2523 </r>
       <r>   -13.2833     9.1113    22.2604 </r>
       <r>   -13.1726    21.6674    24.6578 </r>
       <r>   -13.0620     4.9423    25.2047 </r>
       <r>   -12.9513    11.7185    26.5013 </r>
       <r>   -12.8407     9.0166    27.4990 </r>
       <r>   -12.7300     8.0794    28.3929 </r>
       <r>   -12.6194    30.7849    31.7992 </r>
       <r>   -12.5087     8.2377    32.7107 </r>
       <r>   -12.3981    26.9641    35.6942 </r>
       <r>   -12.2874    21.3429    38.0557 </r>
       <r>   -12.1768     8.5143    38.9978 </r>
       <r>   -12.0661     3.4028    39.3743 </r>
       <r>   -11.9555     0.0061    39.3750 </r>
       <r>   -11.8449     0.0025    39.3753 </r>
       <r>   -11.7342     4.5254    39.8760 </r>
       <r>   -11.6236     8.9818    40.8698 </r>
       <r>   -11.5129     0.0469    40.8750 </r>
       <r>   -11.4023     0.0000    40.8750 </r>
       <r>   -11.2916     0.0000    40.8750 </r>
       <r>   -11.1810     0.0000    40.8750 </r>
       <r>   -11.0703     0.0000    40.8750 </r>
       <r>   -10.9597     0.0000    40.8750 </r>
       <r>   -10.8490     0.0663    40.8823 </r>
       <r>   -10.7384     9.5255    41.9363 </r>
       <r>   -10.6277     3.9631    42.3748 </r>
       <r>   -10.5171     0.0017    42.3750 </r>
       <r>   -10.4064     1.1676    42.5042 </r>
       <r>   -10.2958    11.8627    43.8168 </r>
       <r>   -10.1851     0.5273    43.8751 </r>
       <r>   -10.0745     2.1609    44.1142 </r>
       <r>    -9.9639     4.5899    44.6221 </r>
       <r>    -9.8532     1.2848    44.7642 </r>
       <r>    -9.7426     5.6751    45.3922 </r>
       <r>    -9.6319     0.9638    45.4988 </r>
       <r>    -9.5213     1.3754    45.6510 </r>
       <r>    -9.4106    10.5855    46.8222 </r>
       <r>    -9.3000     1.6074    47.0001 </r>
       <r>    -9.1893     3.6347    47.4023 </r>
       <r>    -9.0787     9.8395    48.4910 </r>
       <r>    -8.9680     0.1485    48.5074 </r>
       <r>    -8.8574     5.2721    49.0907 </r>
       <r>    -8.7467     1.4394    49.2500 </r>
       <r>    -8.6361     1.6010    49.4272 </r>
       <r>    -8.5254     5.1239    49.9941 </r>
       <r>    -8.4148     1.8432    50.1980 </r>
       <r>    -8.3041     4.9473    50.7454 </r>
       <r>    -8.1935     3.5601    51.1394 </r>
       <r>    -8.0828    11.1940    52.3779 </r>
       <r>    -7.9722    11.9128    53.6961 </r>
       <r>    -7.8616     0.8444    53.7895 </r>
       <r>    -7.7509    11.6183    55.0750 </r>
       <r>    -7.6403     1.5821    55.2501 </r>
       <r>    -7.5296     3.3319    55.6188 </r>
       <r>    -7.4190    10.1249    56.7390 </r>
       <r>    -7.3083     0.5463    56.7995 </r>
       <r>    -7.1977     5.9767    57.4608 </r>
       <r>    -7.0870     0.3543    57.5000 </r>
       <r>    -6.9764     0.0013    57.5001 </r>
       <r>    -6.8657     2.3043    57.7551 </r>
       <r>    -6.7551    13.7508    59.2766 </r>
       <r>    -6.6444    10.2934    60.4155 </r>
       <r>    -6.5338     0.8318    60.5076 </r>
       <r>    -6.4231     5.3014    61.0941 </r>
       <r>    -6.3125     8.5846    62.0440 </r>
       <r>    -6.2018    19.3097    64.1806 </r>
       <r>    -6.0912    14.0322    65.7332 </r>
       <r>    -5.9805     4.4347    66.2239 </r>
       <r>    -5.8699    10.1082    67.3423 </r>
       <r>    -5.7593    16.9979    69.2231 </r>
       <r>    -5.6486     9.0839    70.2282 </r>
       <r>    -5.5380     2.7019    70.5272 </r>
       <r>    -5.4273    31.3207    73.9927 </r>
       <r>    -5.3167    42.8245    78.7311 </r>
       <r>    -5.2060    25.9191    81.5990 </r>
       <r>    -5.0954     3.6176    81.9993 </r>
       <r>    -4.9847     0.0067    82.0000 </r>
       <r>    -4.8741     0.7917    82.0876 </r>
       <r>    -4.7634     5.8112    82.7306 </r>
       <r>    -4.6528     4.8310    83.2651 </r>
       <r>    -4.5421     9.8027    84.3498 </r>
       <r>    -4.4315    15.5292    86.0680 </r>
       <r>    -4.3208    21.5805    88.4559 </r>
       <r>    -4.2102    31.4757    91.9386 </r>
       <r>    -4.0995    29.6276    95.2168 </r>
       <r>    -3.9889    19.3285    97.3554 </r>
       <r>    -3.8783     6.9029    98.1192 </r>
       <r>    -3.7676     0.0621    98.1261 </r>
       <r>    -3.6570     7.2327    98.9264 </r>
       <r>    -3.5463    36.0481   102.9150 </r>
       <r>    -3.4357    16.7512   104.7685 </r>
       <r>    -3.3250    16.4352   106.5870 </r>
       <r>    -3.2144    11.6434   107.8753 </r>
       <r>    -3.1037     4.4417   108.3667 </r>
       <r>    -2.9931    10.5607   109.5353 </r>
       <r>    -2.8824    12.6932   110.9397 </r>
       <r>    -2.7718    10.5117   112.1028 </r>
       <r>    -2.6611    12.2056   113.4533 </r>
       <r>    -2.5505     5.7964   114.0947 </r>
       <r>    -2.4398    20.0688   116.3152 </r>
       <r>    -2.3292    24.8780   119.0679 </r>
       <r>    -2.2185    27.7446   122.1378 </r>
       <r>    -2.1079    31.8551   125.6625 </r>
       <r>    -1.9972     6.9993   126.4369 </r>
       <r>    -1.8866    10.0202   127.5456 </r>
       <r>    -1.7760     6.2874   128.2413 </r>
       <r>    -1.6653    19.7129   130.4225 </r>
       <r>    -1.5547     9.3365   131.4556 </r>
       <r>    -1.4440     6.4939   132.1741 </r>
       <r>    -1.3334    13.2671   133.6421 </r>
       <r>    -1.2227    11.4732   134.9115 </r>
       <r>    -1.1121    17.6464   136.8641 </r>
       <r>    -1.0014     7.5720   137.7019 </r>
       <r>    -0.8908    20.8525   140.0092 </r>
       <r>    -0.7801     5.5635   140.6247 </r>
       <r>    -0.6695     0.3081   140.6588 </r>
       <r>    -0.5588    20.3005   142.9050 </r>
       <r>    -0.4482     7.2756   143.7101 </r>
       <r>    -0.3375     0.3609   143.7500 </r>
       <r>    -0.2269     0.0002   143.7500 </r>
       <r>    -0.1162     0.0000   143.7500 </r>
       <r>    -0.0056     0.0000   143.7500 </r>
       <r>     0.1050     0.0000   143.7500 </r>
       <r>     0.2157     0.0000   143.7500 </r>
       <r>     0.3263     0.0000   143.7500 </r>
       <r>     0.4370     0.0000   143.7500 </r>
       <r>     0.5476     0.0000   143.7500 </r>
       <r>     0.6583     0.0000   143.7500 </r>
       <r>     0.7689     0.0000   143.7500 </r>
       <r>     0.8796     0.0000   143.7500 </r>
       <r>     0.9902     0.0000   143.7500 </r>
       <r>     1.1009     0.0000   143.7500 </r>
       <r>     1.2115     0.0000   143.7500 </r>
       <r>     1.3222     0.1903   143.7711 </r>
       <r>     1.4328     9.1982   144.7888 </r>
       <r>     1.5435     7.5893   145.6285 </r>
       <r>     1.6541    14.5577   147.2393 </r>
       <r>     1.7648    26.8410   150.2092 </r>
       <r>     1.8754    12.1470   151.5532 </r>
       <r>     1.9861    13.4597   153.0425 </r>
       <r>     2.0967    34.0565   156.8108 </r>
       <r>     2.2073     5.5319   157.4229 </r>
       <r>     2.3180    22.2308   159.8826 </r>
       <r>     2.4286    14.0868   161.4413 </r>
       <r>     2.5393    15.8149   163.1912 </r>
       <r>     2.6499    10.9245   164.3999 </r>
       <r>     2.7606    12.0396   165.7321 </r>
       <r>     2.8712     1.9127   165.9437 </r>
       <r>     2.9819     4.9838   166.4952 </r>
       <r>     3.0925     4.1077   166.9497 </r>
       <r>     3.2032    26.6991   169.9038 </r>
       <r>     3.3138     8.7556   170.8726 </r>
       <r>     3.4245     2.0822   171.1030 </r>
       <r>     3.5351     0.1989   171.1250 </r>
       <r>     3.6458     2.3527   171.3853 </r>
       <r>     3.7564    17.3180   173.3015 </r>
       <r>     3.8671     0.6640   173.3750 </r>
       <r>     3.9777     0.0000   173.3750 </r>
       <r>     4.0884     0.0000   173.3750 </r>
       <r>     4.1990     0.0000   173.3750 </r>
       <r>     4.3096     0.0000   173.3750 </r>
       <r>     4.4203     0.0000   173.3750 </r>
       <r>     4.5309     0.0000   173.3750 </r>
       <r>     4.6416     0.0000   173.3750 </r>
       <r>     4.7522     0.1691   173.3937 </r>
       <r>     4.8629    11.2039   174.6334 </r>
       <r>     4.9735     8.5185   175.5759 </r>
       <r>     5.0842     0.4434   175.6250 </r>
       <r>     5.1948     0.0000   175.6250 </r>
       <r>     5.3055     0.0000   175.6250 </r>
       <r>     5.4161     0.2990   175.6581 </r>
       <r>     5.5268     5.9566   176.3172 </r>
       <r>     5.6374     0.5226   176.3750 </r>
       <r>     5.7481     0.0000   176.3750 </r>
       <r>     5.8587     0.0000   176.3750 </r>
       <r>     5.9694     0.0000   176.3750 </r>
       <r>     6.0800     0.0000   176.3750 </r>
       <r>     6.1906     0.0000   176.3750 </r>
       <r>     6.3013     0.0000   176.3750 </r>
       <r>     6.4119     0.3326   176.4118 </r>
       <r>     6.5226    11.5606   177.6910 </r>
       <r>     6.6332     1.6633   177.8750 </r>
       <r>     6.7439     0.0001   177.8750 </r>
       <r>     6.8545     0.0000   177.8750 </r>
       <r>     6.9652     0.0000   177.8750 </r>
       <r>     7.0758     0.0000   177.8750 </r>
       <r>     7.1865     0.0000   177.8750 </r>
       <r>     7.2971     0.0000   177.8750 </r>
       <r>     7.4078     0.0000   177.8750 </r>
       <r>     7.5184     0.0000   177.8750 </r>
       <r>     7.6291     0.0000   177.8750 </r>
       <r>     7.7397     0.4349   177.9231 </r>
       <r>     7.8504    11.7585   179.2242 </r>
       <r>     7.9610     1.3632   179.3750 </r>
       <r>     8.0717     0.0015   179.3752 </r>
       <r>     8.1823     1.8198   179.5765 </r>
       <r>     8.2929     3.7875   179.9956 </r>
       <r>     8.4036     0.0398   180.0000 </r>
       <r>     8.5142     0.0000   180.0000 </r>
       <r>     8.6249     0.0000   180.0000 </r>
       <r>     8.7355     0.0000   180.0000 </r>
       <r>     8.8462     0.0000   180.0000 </r>
       <r>     8.9568     0.0000   180.0000 </r>
       <r>     9.0675     0.0000   180.0000 </r>
       <r>     9.1781     0.0000   180.0000 </r>
       <r>     9.2888     0.0000   180.0000 </r>
       <r>     9.3994     0.0000   180.0000 </r>
       <r>     9.5101     0.0000   180.0000 </r>
       <r>     9.6207     0.0000   180.0000 </r>
       <r>     9.7314     0.0000   180.0000 </r>
      </set>
     </set>
    </array>
   </total>
  </dos>
 </calculation>
 <structure name="finalpos" >
  <crystal>
   <varray name="basis" >
    <v>       6.38063097       0.00000000       0.00000000 </v>
    <v>       3.19031401       5.52578936       0.00000000 </v>
    <v>       0.00000000       0.00000000      20.87900352 </v>
   </varray>
   <i name="volume">    736.15238097 </i>
   <varray name="rec_basis" >
    <v>       0.15672431      -0.09048477      -0.00000000 </v>
    <v>       0.00000000       0.18096962      -0.00000000 </v>
    <v>       0.00000000       0.00000000       0.04789501 </v>
   </varray>
  </crystal>
  <varray name="positions" >
   <v>       0.16666651       0.16666649       0.38133727 </v>
   <v>       0.66666651       0.16666649       0.38133727 </v>
   <v>       0.16666651       0.66666649       0.38133727 </v>
   <v>       0.66666651       0.66666649       0.38133727 </v>
   <v>       0.33333351       0.33333349       0.30638715 </v>
   <v>       0.83333351       0.33333349       0.30638715 </v>
   <v>       0.33333351       0.83333349       0.30638715 </v>
   <v>       0.83333351       0.83333349       0.30638715 </v>
   <v>       0.33333351       0.33333349       0.45628740 </v>
   <v>       0.83333351       0.33333349       0.45628740 </v>
   <v>       0.33333351       0.83333349       0.45628740 </v>
   <v>       0.83333351       0.83333349       0.45628740 </v>
   <v>       0.00000000       0.00000000       0.69361285 </v>
   <v>       0.33333333       0.00000000       0.69361285 </v>
   <v>       0.66666667       0.00000000       0.69361285 </v>
   <v>       0.00000000       0.33333333       0.69361285 </v>
   <v>       0.33333333       0.33333333       0.69361285 </v>
   <v>       0.66666667       0.33333333       0.69361285 </v>
   <v>       0.00000000       0.66666667       0.69361285 </v>
   <v>       0.33333333       0.66666667       0.69361285 </v>
   <v>       0.66666667       0.66666667       0.69361285 </v>
   <v>       0.11111100       0.11111100       0.69361285 </v>
   <v>       0.44444434       0.11111100       0.69361285 </v>
   <v>       0.77777767       0.11111100       0.69361285 </v>
   <v>       0.11111100       0.44444433       0.69361285 </v>
   <v>       0.44444434       0.44444433       0.69361285 </v>
   <v>       0.77777767       0.44444433       0.69361285 </v>
   <v>       0.11111100       0.77777766       0.69361285 </v>
   <v>       0.44444434       0.77777766       0.69361285 </v>
   <v>       0.77777767       0.77777766       0.69361285 </v>
  </varray>
 </structure>
</modeling>
