                                        
           1
     6.380631    0.000000    0.000000
     3.190314    5.525789    0.000000
     0.000000    0.000000   20.879004
   Mo   S    C 
   4   8  18
Direct configuration=     1
   0.16666651  0.16666649  0.38133727
   0.66666651  0.16666649  0.38133727
   0.16666651  0.66666649  0.38133727
   0.66666651  0.66666649  0.38133727
   0.33333351  0.33333349  0.30638715
   0.83333351  0.33333349  0.30638715
   0.33333351  0.83333349  0.30638715
   0.83333351  0.83333349  0.30638715
   0.33333351  0.33333349  0.45628740
   0.83333351  0.33333349  0.45628740
   0.33333351  0.83333349  0.45628740
   0.83333351  0.83333349  0.45628740
   0.00000000  0.00000000  0.69361285
   0.33333333  0.00000000  0.69361285
   0.66666667  0.00000000  0.69361285
   0.00000000  0.33333333  0.69361285
   0.33333333  0.33333333  0.69361285
   0.66666667  0.33333333  0.69361285
   0.00000000  0.66666667  0.69361285
   0.33333333  0.66666667  0.69361285
   0.66666667  0.66666667  0.69361285
   0.11111100  0.11111100  0.69361285
   0.44444434  0.11111100  0.69361285
   0.77777767  0.11111100  0.69361285
   0.11111100  0.44444433  0.69361285
   0.44444434  0.44444433  0.69361285
   0.77777767  0.44444433  0.69361285
   0.11111100  0.77777766  0.69361285
   0.44444434  0.77777766  0.69361285
   0.77777767  0.77777766  0.69361285
