 running on   48 total cores
 distrk:  each k-point on   48 cores,    1 groups
 distr:  one band on    8 cores,    6 groups
 using from now: INCAR     
 vasp.5.4.4.18Apr17-6-g9f103f2a35 (build Aug 13 2022 23:40:43) complex          
  
 POSCAR found type information on POSCAR  C  O 
 POSCAR found :  2 types and      51 ions
 scaLAPACK will be used

 ----------------------------------------------------------------------------- 
|                                                                             |
|  ADVICE TO THIS USER RUNNING 'VASP/VAMP'   (HEAR YOUR MASTER'S VOICE ...):  |
|                                                                             |
|      You have a (more or less) 'large supercell' and for larger cells       |
|      it might be more efficient to use real space projection opertators     |
|      So try LREAL= Auto  in the INCAR   file.                               |
|      Mind:          For very  accurate calculation you might also keep the  |
|      reciprocal projection scheme          (i.e. LREAL=.FALSE.)             |
|                                                                             |
 ----------------------------------------------------------------------------- 

 LDA part: xc-table for Pade appr. of Perdew
 POSCAR found type information on POSCAR  C  O 
 POSCAR found :  2 types and      51 ions
 found WAVECAR, reading the header
  number of k-points has changed, file:     3 present:     5
  trying to continue reading WAVECAR, but it might fail
 POSCAR, INCAR and KPOINTS ok, starting setup
 FFT: planning ...
 reading WAVECAR
 the WAVECAR file was read successfully
 charge-density read from file: 1.00000000000000                        
 entering main loop
       N       E                     dE             d eps       ncg     rms          rms(c)
DAV:   1    -0.453293220540E+03   -0.45329E+03   -0.28414E+02  1356   0.216E+01    0.498E-01
RMM:   2    -0.454280970756E+03   -0.98775E+00   -0.99024E+00  1418   0.566E+00    0.202E-01
RMM:   3    -0.454333276848E+03   -0.52306E-01   -0.58552E-01  1580   0.109E+00    0.153E-01
RMM:   4    -0.454337143888E+03   -0.38670E-02   -0.40601E-02  1576   0.311E-01    0.151E-01
RMM:   5    -0.454337251725E+03   -0.10784E-03   -0.31838E-03  1512   0.905E-02    0.602E-02
RMM:   6    -0.454337278375E+03   -0.26650E-04   -0.48400E-04  1534   0.454E-02    0.148E-02
RMM:   7    -0.454337285454E+03   -0.70792E-05   -0.21345E-05  1028   0.108E-02
   1 F= -.45433729E+03 E0= -.45433723E+03  d E =-.113018E-03
