       N       E                     dE             d eps       ncg     rms          rms(c)
DAV:   1     0.126001693017E+05    0.12600E+05   -0.17450E+05 49820   0.260E+03
DAV:   2     0.225527569548E+04   -0.10345E+05   -0.99012E+04 44024   0.691E+02
DAV:   3    -0.346946789078E+03   -0.26022E+04   -0.24024E+04 50336   0.262E+02
DAV:   4    -0.709580746219E+03   -0.36263E+03   -0.34730E+03 46536   0.109E+02
DAV:   5    -0.725978865965E+03   -0.16398E+02   -0.16338E+02 48144   0.252E+01
RMM:   6    -0.726632748250E+03   -0.65388E+00   -0.65388E+00 58921   0.488E+00
RMM:   7    -0.726686715581E+03   -0.53967E-01   -0.80642E-01 70284   0.125E+00
RMM:   8    -0.726663168473E+03    0.23547E-01   -0.45638E-02 63267   0.553E-01
RMM:   9    -0.726664142672E+03   -0.97420E-03   -0.11777E-02 69590   0.138E-01
RMM:  10    -0.726664015996E+03    0.12668E-03   -0.10641E-03 62453   0.492E-02
RMM:  11    -0.726664026139E+03   -0.10143E-04   -0.29922E-04 58481   0.188E-02
RMM:  12    -0.726664020135E+03    0.60040E-05   -0.31840E-05 45867   0.922E-03
RMM:  13    -0.726664020505E+03   -0.37023E-06   -0.78697E-06 41114   0.514E-03
   1 F= -.72666402E+03 E0= -.72666600E+03  d E =0.594433E-02
