  51  51   0   0
  0.5138078E+02  0.1230000E-08  0.1230000E-08  0.2000000E-08  0.5000000E-15
  1.000000000000000E-004
  CAR 
                                         
      5.97540945    -33.73699605  301     -3.01147329      1.00000000
    -33.737  0.0000E+00  0.0000E+00
    -33.605  0.0000E+00  0.0000E+00
    -33.472  0.0000E+00  0.0000E+00
    -33.340  0.0000E+00  0.0000E+00
    -33.207  0.0000E+00  0.0000E+00
    -33.075  0.0000E+00  0.0000E+00
    -32.943  0.0000E+00  0.0000E+00
    -32.810  0.0000E+00  0.0000E+00
    -32.678  0.0000E+00  0.0000E+00
    -32.546  0.0000E+00  0.0000E+00
    -32.413  0.0000E+00  0.0000E+00
    -32.281  0.0000E+00  0.0000E+00
    -32.148  0.6719E-08  0.8894E-09
    -32.016  0.1294E+00  0.1713E-01
    -31.884  0.1367E+02  0.1826E+01
    -31.751  0.1313E+01  0.2000E+01
    -31.619  0.2509E-05  0.2000E+01
    -31.487  0.0000E+00  0.2000E+01
    -31.354  0.0000E+00  0.2000E+01
    -31.222  0.0000E+00  0.2000E+01
    -31.090  0.0000E+00  0.2000E+01
    -30.957  0.0000E+00  0.2000E+01
    -30.825  0.0000E+00  0.2000E+01
    -30.692  0.0000E+00  0.2000E+01
    -30.560  0.0000E+00  0.2000E+01
    -30.428  0.0000E+00  0.2000E+01
    -30.295  0.0000E+00  0.2000E+01
    -30.163  0.0000E+00  0.2000E+01
    -30.031  0.0000E+00  0.2000E+01
    -29.898  0.0000E+00  0.2000E+01
    -29.766  0.0000E+00  0.2000E+01
    -29.633  0.0000E+00  0.2000E+01
    -29.501  0.0000E+00  0.2000E+01
    -29.369  0.0000E+00  0.2000E+01
    -29.236  0.0000E+00  0.2000E+01
    -29.104  0.0000E+00  0.2000E+01
    -28.972  0.0000E+00  0.2000E+01
    -28.839  0.0000E+00  0.2000E+01
    -28.707  0.0000E+00  0.2000E+01
    -28.574  0.0000E+00  0.2000E+01
    -28.442  0.0000E+00  0.2000E+01
    -28.310  0.0000E+00  0.2000E+01
    -28.177  0.0000E+00  0.2000E+01
    -28.045  0.0000E+00  0.2000E+01
    -27.913  0.0000E+00  0.2000E+01
    -27.780  0.0000E+00  0.2000E+01
    -27.648  0.0000E+00  0.2000E+01
    -27.515  0.0000E+00  0.2000E+01
    -27.383  0.0000E+00  0.2000E+01
    -27.251  0.0000E+00  0.2000E+01
    -27.118  0.0000E+00  0.2000E+01
    -26.986  0.0000E+00  0.2000E+01
    -26.854  0.0000E+00  0.2000E+01
    -26.721  0.0000E+00  0.2000E+01
    -26.589  0.0000E+00  0.2000E+01
    -26.456  0.0000E+00  0.2000E+01
    -26.324  0.0000E+00  0.2000E+01
    -26.192  0.0000E+00  0.2000E+01
    -26.059  0.0000E+00  0.2000E+01
    -25.927  0.0000E+00  0.2000E+01
    -25.795  0.0000E+00  0.2000E+01
    -25.662  0.0000E+00  0.2000E+01
    -25.530  0.0000E+00  0.2000E+01
    -25.397  0.0000E+00  0.2000E+01
    -25.265  0.0000E+00  0.2000E+01
    -25.133  0.0000E+00  0.2000E+01
    -25.000  0.0000E+00  0.2000E+01
    -24.868  0.0000E+00  0.2000E+01
    -24.736  0.0000E+00  0.2000E+01
    -24.603  0.0000E+00  0.2000E+01
    -24.471  0.0000E+00  0.2000E+01
    -24.338  0.0000E+00  0.2000E+01
    -24.206  0.0000E+00  0.2000E+01
    -24.074  0.0000E+00  0.2000E+01
    -23.941  0.0000E+00  0.2000E+01
    -23.809  0.0000E+00  0.2000E+01
    -23.677  0.0000E+00  0.2000E+01
    -23.544  0.0000E+00  0.2000E+01
    -23.412  0.0000E+00  0.2000E+01
    -23.279  0.0000E+00  0.2000E+01
    -23.147  0.0000E+00  0.2000E+01
    -23.015  0.0000E+00  0.2000E+01
    -22.882  0.0000E+00  0.2000E+01
    -22.750  0.0000E+00  0.2000E+01
    -22.618  0.0000E+00  0.2000E+01
    -22.485  0.8547E-09  0.2000E+01
    -22.353  0.1526E-01  0.2002E+01
    -22.220  0.3284E+01  0.2437E+01
    -22.088  0.9792E+01  0.3733E+01
    -21.956  0.5193E+01  0.4420E+01
    -21.823  0.1013E+02  0.5761E+01
    -21.691  0.5626E+01  0.6506E+01
    -21.559  0.8175E+01  0.7588E+01
    -21.426  0.1186E+02  0.9158E+01
    -21.294  0.6350E+01  0.9998E+01
    -21.161  0.3581E+01  0.1047E+02
    -21.029  0.8978E+01  0.1166E+02
    -20.897  0.1082E+02  0.1309E+02
    -20.764  0.1029E+02  0.1446E+02
    -20.632  0.8288E+01  0.1555E+02
    -20.500  0.2227E+00  0.1558E+02
    -20.367  0.1340E+02  0.1736E+02
    -20.235  0.3533E+01  0.1782E+02
    -20.102  0.1845E+02  0.2027E+02
    -19.970  0.1406E+01  0.2045E+02
    -19.838  0.4058E+01  0.2099E+02
    -19.705  0.1513E+02  0.2299E+02
    -19.573  0.6799E+01  0.2389E+02
    -19.441  0.5850E+01  0.2467E+02
    -19.308  0.7182E+01  0.2562E+02
    -19.176  0.1379E+02  0.2744E+02
    -19.043  0.8550E+01  0.2857E+02
    -18.911  0.4070E+01  0.2911E+02
    -18.779  0.4959E+01  0.2977E+02
    -18.646  0.6063E+01  0.3057E+02
    -18.514  0.1314E+02  0.3231E+02
    -18.382  0.1142E+02  0.3382E+02
    -18.249  0.8015E+01  0.3488E+02
    -18.117  0.7405E+01  0.3586E+02
    -17.984  0.1292E+02  0.3757E+02
    -17.852  0.4962E+01  0.3823E+02
    -17.720  0.3278E+01  0.3867E+02
    -17.587  0.8204E+01  0.3975E+02
    -17.455  0.1449E+02  0.4167E+02
    -17.323  0.4568E+01  0.4227E+02
    -17.190  0.2026E+02  0.4495E+02
    -17.058  0.7609E+01  0.4596E+02
    -16.925  0.2151E+01  0.4625E+02
    -16.793  0.9402E+01  0.4749E+02
    -16.661  0.6967E+01  0.4841E+02
    -16.528  0.5981E+01  0.4921E+02
    -16.396  0.9064E+01  0.5041E+02
    -16.264  0.3190E+01  0.5083E+02
    -16.131  0.9791E+01  0.5212E+02
    -15.999  0.8600E+01  0.5326E+02
    -15.866  0.1201E+02  0.5485E+02
    -15.734  0.8611E+01  0.5599E+02
    -15.602  0.2822E+01  0.5637E+02
    -15.469  0.4433E+01  0.5695E+02
    -15.337  0.2478E+01  0.5728E+02
    -15.205  0.1209E+02  0.5888E+02
    -15.072  0.2101E+02  0.6166E+02
    -14.940  0.4662E+01  0.6228E+02
    -14.807  0.1173E+02  0.6383E+02
    -14.675  0.1013E+02  0.6517E+02
    -14.543  0.4956E+01  0.6583E+02
    -14.410  0.1842E+02  0.6827E+02
    -14.278  0.1335E+01  0.6844E+02
    -14.146  0.2554E+01  0.6878E+02
    -14.013  0.2891E+01  0.6917E+02
    -13.881  0.1317E+02  0.7091E+02
    -13.748  0.2442E+02  0.7414E+02
    -13.616  0.7167E+01  0.7509E+02
    -13.484  0.2257E+01  0.7539E+02
    -13.351  0.1268E+01  0.7556E+02
    -13.219  0.2770E+01  0.7592E+02
    -13.087  0.1348E+02  0.7771E+02
    -12.954  0.1434E+02  0.7960E+02
    -12.822  0.1631E+02  0.8176E+02
    -12.689  0.1276E+00  0.8178E+02
    -12.557  0.1259E+02  0.8345E+02
    -12.425  0.1255E+02  0.8511E+02
    -12.292  0.8844E+01  0.8628E+02
    -12.160  0.2948E+01  0.8667E+02
    -12.028  0.9283E+01  0.8790E+02
    -11.895  0.5902E+01  0.8868E+02
    -11.763  0.8311E+01  0.8978E+02
    -11.630  0.2018E+02  0.9245E+02
    -11.498  0.1323E+02  0.9420E+02
    -11.366  0.1042E+02  0.9558E+02
    -11.233  0.9516E+01  0.9684E+02
    -11.101  0.8380E+01  0.9795E+02
    -10.969  0.3807E+01  0.9845E+02
    -10.836  0.2022E+02  0.1011E+03
    -10.704  0.8252E+01  0.1022E+03
    -10.571  0.9037E+01  0.1034E+03
    -10.439  0.1553E+02  0.1055E+03
    -10.307  0.7922E+01  0.1065E+03
    -10.174  0.3067E+02  0.1106E+03
    -10.042  0.2380E+02  0.1137E+03
     -9.910  0.9071E+01  0.1149E+03
     -9.777  0.2163E+02  0.1178E+03
     -9.645  0.1763E+02  0.1201E+03
     -9.512  0.3146E+02  0.1243E+03
     -9.380  0.1578E+02  0.1264E+03
     -9.248  0.2995E+02  0.1303E+03
     -9.115  0.2203E+02  0.1333E+03
     -8.983  0.2688E+02  0.1368E+03
     -8.851  0.2425E+02  0.1400E+03
     -8.718  0.1049E+02  0.1414E+03
     -8.586  0.2832E+02  0.1452E+03
     -8.453  0.1354E+02  0.1470E+03
     -8.321  0.1604E+02  0.1491E+03
     -8.189  0.1315E+02  0.1508E+03
     -8.056  0.2770E+02  0.1545E+03
     -7.924  0.2078E+02  0.1572E+03
     -7.792  0.1922E+02  0.1598E+03
     -7.659  0.6301E+01  0.1606E+03
     -7.527  0.8679E+01  0.1618E+03
     -7.394  0.2237E+01  0.1621E+03
     -7.262  0.3293E+02  0.1664E+03
     -7.130  0.2693E+02  0.1700E+03
     -6.997  0.3540E+01  0.1705E+03
     -6.865  0.1738E+02  0.1728E+03
     -6.733  0.9682E+01  0.1740E+03
     -6.600  0.1728E+02  0.1763E+03
     -6.468  0.1173E+02  0.1779E+03
     -6.335  0.9099E+01  0.1791E+03
     -6.203  0.1429E+02  0.1810E+03
     -6.071  0.1555E+02  0.1830E+03
     -5.938  0.1159E+02  0.1846E+03
     -5.806  0.1771E+02  0.1869E+03
     -5.674  0.1105E+02  0.1884E+03
     -5.541  0.8865E+01  0.1896E+03
     -5.409  0.5260E+01  0.1902E+03
     -5.276  0.1047E+02  0.1916E+03
     -5.144  0.5299E+01  0.1923E+03
     -5.012  0.1442E+02  0.1942E+03
     -4.879  0.2533E+02  0.1976E+03
     -4.747  0.3434E+01  0.1981E+03
     -4.615  0.1273E+01  0.1982E+03
     -4.482  0.8758E-04  0.1982E+03
     -4.350  0.1466E+00  0.1982E+03
     -4.217  0.1440E+02  0.2001E+03
     -4.085  0.1050E+02  0.2015E+03
     -3.953  0.1290E+00  0.2016E+03
     -3.820  0.9477E-02  0.2016E+03
     -3.688  0.2796E+01  0.2019E+03
     -3.556  0.5628E+00  0.2020E+03
     -3.423  0.2863E+01  0.2024E+03
     -3.291  0.9936E+01  0.2037E+03
     -3.158  0.8883E+01  0.2049E+03
     -3.026  0.8502E+01  0.2060E+03
     -2.894  0.1323E+01  0.2062E+03
     -2.761  0.9190E+01  0.2074E+03
     -2.629  0.1261E+01  0.2076E+03
     -2.497  0.1938E-02  0.2076E+03
     -2.364  0.2312E+01  0.2079E+03
     -2.232  0.2436E+01  0.2082E+03
     -2.099  0.1965E+01  0.2084E+03
     -1.967  0.7015E-03  0.2084E+03
     -1.835  0.1974E-10  0.2084E+03
     -1.702  0.6874E-02  0.2084E+03
     -1.570  0.7103E+01  0.2094E+03
     -1.438  0.9827E+01  0.2107E+03
     -1.305  0.8239E+01  0.2118E+03
     -1.173  0.4937E-02  0.2118E+03
     -1.040  0.2207E+00  0.2118E+03
     -0.908  0.6770E+01  0.2127E+03
     -0.776  0.2513E+02  0.2160E+03
     -0.643  0.1856E+02  0.2185E+03
     -0.511  0.6962E+01  0.2194E+03
     -0.379  0.1117E+01  0.2196E+03
     -0.246  0.2755E+01  0.2199E+03
     -0.114  0.1023E+02  0.2213E+03
      0.019  0.1107E+02  0.2227E+03
      0.151  0.2810E+01  0.2231E+03
      0.283  0.1135E+02  0.2246E+03
      0.416  0.1094E+02  0.2261E+03
      0.548  0.3659E+01  0.2265E+03
      0.680  0.7495E+01  0.2275E+03
      0.813  0.1964E+02  0.2301E+03
      0.945  0.6082E+01  0.2309E+03
      1.078  0.9591E+01  0.2322E+03
      1.210  0.1675E+02  0.2344E+03
      1.342  0.6646E+01  0.2353E+03
      1.475  0.1515E+02  0.2373E+03
      1.607  0.2296E+02  0.2404E+03
      1.739  0.1480E+02  0.2423E+03
      1.872  0.2863E+02  0.2461E+03
      2.004  0.9084E+01  0.2473E+03
      2.137  0.1424E+02  0.2492E+03
      2.269  0.2551E+02  0.2526E+03
      2.401  0.3010E+02  0.2566E+03
      2.534  0.9287E+01  0.2578E+03
      2.666  0.5861E+01  0.2586E+03
      2.798  0.8348E+01  0.2597E+03
      2.931  0.5982E+01  0.2605E+03
      3.063  0.8774E+01  0.2616E+03
      3.196  0.2955E+01  0.2620E+03
      3.328  0.4909E+01  0.2627E+03
      3.460  0.5253E-01  0.2627E+03
      3.593  0.2651E+01  0.2630E+03
      3.725  0.4062E+01  0.2636E+03
      3.857  0.2155E-02  0.2636E+03
      3.990  0.5535E-06  0.2636E+03
      4.122  0.2910E+00  0.2636E+03
      4.255  0.3038E+01  0.2640E+03
      4.387  0.2886E-01  0.2640E+03
      4.519  0.1506E-08  0.2640E+03
      4.652  0.0000E+00  0.2640E+03
      4.784  0.0000E+00  0.2640E+03
      4.916  0.0000E+00  0.2640E+03
      5.049  0.0000E+00  0.2640E+03
      5.181  0.0000E+00  0.2640E+03
      5.314  0.0000E+00  0.2640E+03
      5.446  0.0000E+00  0.2640E+03
      5.578  0.0000E+00  0.2640E+03
      5.711  0.0000E+00  0.2640E+03
      5.843  0.0000E+00  0.2640E+03
      5.975  0.0000E+00  0.2640E+03
