 vasp.5.4.4.18Apr17-6-g9f103f2a35 (build Aug 13 2022 23:40:43) complex          
  
 executed on             LinuxIFC date 2024.11.10  04:29:18
 running on   48 total cores
 distrk:  each k-point on   48 cores,    1 groups
 distr:  one band on NCORES_PER_BAND=   8 cores,    6 groups


--------------------------------------------------------------------------------------------------------


 INCAR:
 POTCAR:    PAW_PBE C 08Apr2002                   
 POTCAR:    PAW_PBE O 08Apr2002                   
 POTCAR:    PAW_PBE C 08Apr2002                   
   VRHFIN =C: s2p2                                                              
   LEXCH  = PE                                                                  
   EATOM  =   147.1560 eV,   10.8157 Ry                                         
                                                                                
   TITEL  = PAW_PBE C 08Apr2002                                                 
   LULTRA =        F    use ultrasoft PP ?                                      
   IUNSCR =        1    unscreen: 0-lin 1-nonlin 2-no                           
   RPACOR =    1.200    partial core radius                                     
   POMASS =   12.011; ZVAL   =    4.000    mass and valenz                      
   RCORE  =    1.500    outmost cutoff radius                                   
   RWIGS  =    1.630; RWIGS  =    0.863    wigner-seitz radius (au A)           
   ENMAX  =  400.000; ENMIN  =  300.000 eV                                      
   ICORE  =        2    local potential                                         
   LCOR   =        T    correct aug charges                                     
   LPAW   =        T    paw PP                                                  
   EAUG   =  644.873                                                            
   DEXC   =    0.000                                                            
   RMAX   =    1.529    core radius for proj-oper                               
   RAUG   =    1.300    factor for augmentation sphere                          
   RDEP   =    1.501    radius for radial grids                                 
   RDEPT  =    1.300    core radius for aug-charge                              
                                                                                
   Atomic configuration                                                         
    4 entries                                                                   
     n  l   j            E        occ.                                          
     1  0  0.50      -273.3789   2.0000                                         
     2  0  0.50       -13.7508   2.0000                                         
     2  1  0.50        -5.2854   2.0000                                         
     3  2  1.50        -5.4423   0.0000                                         
   Description                                                                  
     l       E           TYP  RCUT    TYP  RCUT                                 
     0    -13.7508458     23  1.200                                             
     0     -8.2022199     23  1.200                                             
     1     -5.2854383     23  1.500                                             
     1     34.0145650     23  1.500                                             
     2     -5.4423304      7  1.500                                             
  local pseudopotential read in
  partial core-charges read in
  partial kinetic energy density read in
  atomic valenz-charges read in
  non local Contribution for L=           0  read in
    real space projection operators read in
  non local Contribution for L=           0  read in
    real space projection operators read in
  non local Contribution for L=           1  read in
    real space projection operators read in
  non local Contribution for L=           1  read in
    real space projection operators read in
    PAW grid and wavefunctions read in
 
   number of l-projection  operators is LMAX  =           4
   number of lm-projection operators is LMMAX =           8
 
 POTCAR:    PAW_PBE O 08Apr2002                   
   VRHFIN =O: s2p4                                                              
   LEXCH  = PE                                                                  
   EATOM  =   432.3788 eV,   31.7789 Ry                                         
                                                                                
   TITEL  = PAW_PBE O 08Apr2002                                                 
   LULTRA =        F    use ultrasoft PP ?                                      
   IUNSCR =        1    unscreen: 0-lin 1-nonlin 2-no                           
   RPACOR =    1.200    partial core radius                                     
   POMASS =   16.000; ZVAL   =    6.000    mass and valenz                      
   RCORE  =    1.520    outmost cutoff radius                                   
   RWIGS  =    1.550; RWIGS  =    0.820    wigner-seitz radius (au A)           
   ENMAX  =  400.000; ENMIN  =  300.000 eV                                      
   ICORE  =        2    local potential                                         
   LCOR   =        T    correct aug charges                                     
   LPAW   =        T    paw PP                                                  
   EAUG   =  605.392                                                            
   DEXC   =    0.000                                                            
   RMAX   =    1.553    core radius for proj-oper                               
   RAUG   =    1.300    factor for augmentation sphere                          
   RDEP   =    1.550    radius for radial grids                                 
   RDEPT  =    1.329    core radius for aug-charge                              
                                                                                
   Atomic configuration                                                         
    4 entries                                                                   
     n  l   j            E        occ.                                          
     1  0  0.50      -514.6923   2.0000                                         
     2  0  0.50       -23.9615   2.0000                                         
     2  1  0.50        -9.0305   4.0000                                         
     3  2  1.50        -9.5241   0.0000                                         
   Description                                                                  
     l       E           TYP  RCUT    TYP  RCUT                                 
     0    -23.9615318     23  1.200                                             
     0     -9.5240782     23  1.200                                             
     1     -9.0304911     23  1.520                                             
     1      8.1634956     23  1.520                                             
     2     -9.5240782      7  1.500                                             
  local pseudopotential read in
  partial core-charges read in
  partial kinetic energy density read in
  kinetic energy density of atom read in
  atomic valenz-charges read in
  non local Contribution for L=           0  read in
    real space projection operators read in
  non local Contribution for L=           0  read in
    real space projection operators read in
  non local Contribution for L=           1  read in
    real space projection operators read in
  non local Contribution for L=           1  read in
    real space projection operators read in
    PAW grid and wavefunctions read in
 
   number of l-projection  operators is LMAX  =           4
   number of lm-projection operators is LMMAX =           8
 

 ----------------------------------------------------------------------------- 
|                                                                             |
|  ADVICE TO THIS USER RUNNING 'VASP/VAMP'   (HEAR YOUR MASTER'S VOICE ...):  |
|                                                                             |
|      You have a (more or less) 'large supercell' and for larger cells       |
|      it might be more efficient to use real space projection opertators     |
|      So try LREAL= Auto  in the INCAR   file.                               |
|      Mind:          For very  accurate calculation you might also keep the  |
|      reciprocal projection scheme          (i.e. LREAL=.FALSE.)             |
|                                                                             |
 ----------------------------------------------------------------------------- 

  PAW_PBE C 08Apr2002                   :
 energy of atom  1       EATOM= -147.1560
 kinetic energy error for atom=    0.0288 (will be added to EATOM!!)
  PAW_PBE O 08Apr2002                   :
 energy of atom  2       EATOM= -432.3788
 kinetic energy error for atom=    0.1156 (will be added to EATOM!!)
 
 
 POSCAR: generated by phonopy                    
  positions in direct lattice
  No initial velocities read in
 exchange correlation table for  LEXCH =        8
   RHO(1)=    0.500       N(1)  =     2000
   RHO(2)=  100.500       N(2)  =     4000

 VTST: version 3.2, (02/03/18)

 CHAIN: initializing optimizer
 
 OPT: Using VASP Dynamics algorithm
 CHAIN: Read ICHAIN            0
 
 POSCAR: generated by phonopy                    
  positions in direct lattice
  No initial velocities read in
 


--------------------------------------------------------------------------------------------------------


 ion  position               nearest neighbor table
   1  0.000  0.000  0.418-  26 1.42  30 1.42  46 1.42
   2  0.200  0.000  0.418-  27 1.42  26 1.42  47 1.42
   3  0.400  0.000  0.418-  28 1.42  27 1.42  48 1.42
   4  0.600  0.000  0.418-  29 1.42  28 1.42  49 1.42
   5  0.800  0.000  0.418-  30 1.42  29 1.42  50 1.42
   6  0.000  0.200  0.418-  31 1.42  35 1.42  26 1.42
   7  0.200  0.200  0.418-  32 1.42  31 1.42  27 1.42
   8  0.400  0.200  0.418-  33 1.42  32 1.42  28 1.42
   9  0.600  0.200  0.418-  34 1.42  33 1.42  29 1.42
  10  0.800  0.200  0.418-  35 1.42  34 1.42  30 1.42
  11  0.000  0.400  0.418-  36 1.42  40 1.42  31 1.42
  12  0.200  0.400  0.418-  37 1.42  36 1.42  32 1.42
  13  0.400  0.400  0.418-  51 0.99  38 1.42  37 1.42  33 1.42
  14  0.600  0.400  0.418-  39 1.42  38 1.42  34 1.42
  15  0.800  0.400  0.418-  40 1.42  39 1.42  35 1.42
  16  0.000  0.600  0.418-  41 1.42  45 1.42  36 1.42
  17  0.200  0.600  0.418-  42 1.42  41 1.42  37 1.42
  18  0.400  0.600  0.418-  43 1.42  42 1.42  38 1.42
  19  0.600  0.600  0.418-  44 1.42  43 1.42  39 1.42
  20  0.800  0.600  0.418-  45 1.42  44 1.42  40 1.42
  21  0.000  0.800  0.418-  46 1.42  50 1.42  41 1.42
  22  0.200  0.800  0.418-  47 1.42  46 1.42  42 1.42
  23  0.400  0.800  0.418-  48 1.42  47 1.42  43 1.42
  24  0.600  0.800  0.418-  49 1.42  48 1.42  44 1.42
  25  0.800  0.800  0.418-  50 1.42  49 1.42  45 1.42
  26  0.067  0.067  0.418-   1 1.42   2 1.42   6 1.42
  27  0.267  0.067  0.418-   2 1.42   3 1.42   7 1.42
  28  0.467  0.067  0.418-   3 1.42   4 1.42   8 1.42
  29  0.667  0.067  0.418-   4 1.42   5 1.42   9 1.42
  30  0.867  0.067  0.418-   5 1.42   1 1.42  10 1.42
  31  0.067  0.267  0.418-   6 1.42   7 1.42  11 1.42
  32  0.267  0.267  0.418-   7 1.42   8 1.42  12 1.42
  33  0.467  0.267  0.418-   8 1.42   9 1.42  13 1.42  51 1.73
  34  0.667  0.267  0.418-   9 1.42  10 1.42  14 1.42
  35  0.867  0.267  0.418-  10 1.42   6 1.42  15 1.42
  36  0.067  0.467  0.418-  11 1.42  12 1.42  16 1.42
  37  0.267  0.467  0.418-  12 1.42  13 1.42  17 1.42  51 1.73
  38  0.467  0.467  0.418-  13 1.42  14 1.42  18 1.42  51 1.74
  39  0.667  0.467  0.418-  14 1.42  15 1.42  19 1.42
  40  0.867  0.467  0.418-  15 1.42  11 1.42  20 1.42
  41  0.067  0.667  0.418-  16 1.42  17 1.42  21 1.42
  42  0.267  0.667  0.418-  17 1.42  18 1.42  22 1.42
  43  0.467  0.667  0.418-  18 1.42  19 1.42  23 1.42
  44  0.667  0.667  0.418-  19 1.42  20 1.42  24 1.42
  45  0.867  0.667  0.418-  20 1.42  16 1.42  25 1.42
  46  0.067  0.867  0.418-  21 1.42  22 1.42   1 1.42
  47  0.267  0.867  0.418-  22 1.42  23 1.42   2 1.42
  48  0.467  0.867  0.418-  23 1.42  24 1.42   3 1.42
  49  0.667  0.867  0.418-  24 1.42  25 1.42   4 1.42
  50  0.867  0.867  0.418-  25 1.42  21 1.42   5 1.42
  51  0.400  0.400  0.468-  13 0.99  37 1.73  33 1.73  38 1.74
 
  LATTYP: Found a hexagonal cell.
 ALAT       =    12.2999994816
 C/A-ratio  =     1.6260163287
  
  Lattice vectors:
  
 A1 = (   6.1499993860, -10.6521122225,   0.0000000000)
 A2 = ( -12.3000001905,   0.0000000000,   0.0000000000)
 A3 = (   0.0000000000,   0.0000000000, -20.0000000000)


Analysis of symmetry for initial positions (statically):
=====================================================================
 Subroutine PRICEL returns:
 Original cell was already a primitive cell.
 

 Routine SETGRP: Setting up the symmetry group for a 
 hexagonal supercell.


 Subroutine GETGRP returns: Found  1 space group operations
 (whereof  1 operations were pure point group operations)
 out of a pool of 24 trial point group operations.


The static configuration has the point symmetry C_1 .


Analysis of symmetry for dynamics (positions and initial velocities):
=====================================================================
 Subroutine PRICEL returns:
 Original cell was already a primitive cell.
 

 Routine SETGRP: Setting up the symmetry group for a 
 hexagonal supercell.


 Subroutine GETGRP returns: Found  1 space group operations
 (whereof  1 operations were pure point group operations)
 out of a pool of 24 trial point group operations.


The dynamic configuration has the point symmetry C_1 .


 Subroutine INISYM returns: Found  1 space group operations
 (whereof  1 operations are pure point group operations),
 and found     1 'primitive' translations

 
 
 KPOINTS: K-POINTS                                

Automatic generation of k-mesh.
Space group operators:
 irot       det(A)        alpha          n_x          n_y          n_z        tau_x        tau_y        tau_z
    1     1.000000     0.000000     1.000000     0.000000     0.000000     0.000000     0.000000     0.000000
 
 Subroutine IBZKPT returns following result:
 ===========================================
 
 Found      5 irreducible k-points:
 
 Following reciprocal coordinates:
            Coordinates               Weight
  0.000000  0.000000  0.000000      1.000000
  0.333333  0.000000  0.000000      2.000000
  0.000000  0.333333  0.000000      2.000000
  0.333333  0.333333  0.000000      2.000000
 -0.333333  0.333333  0.000000      2.000000
 
 Following cartesian coordinates:
            Coordinates               Weight
  0.000000  0.000000  0.000000      1.000000
  0.027100 -0.015646  0.000000      2.000000
  0.000000  0.031293  0.000000      2.000000
  0.027100  0.015646  0.000000      2.000000
 -0.027100  0.046939  0.000000      2.000000
 


--------------------------------------------------------------------------------------------------------




 Dimension of arrays:
   k-points           NKPTS =      5   k-points in BZ     NKDIM =      5   number of bands    NBANDS=    132
   number of dos      NEDOS =    301   number of ions     NIONS =     51
   non local maximal  LDIM  =      4   non local SUM 2l+1 LMDIM =      8
   total plane-waves  NPLWV = 896000
   max r-space proj   IRMAX =      1   max aug-charges    IRDMAX=  35685
   dimension x,y,z NGX =    80 NGY =   80 NGZ =  140
   dimension x,y,z NGXF=   160 NGYF=  160 NGZF=  280
   support grid    NGXF=   320 NGYF=  320 NGZF=  560
   ions per type =              50   1
   NGX,Y,Z   is equivalent  to a cutoff of  10.81, 10.81, 11.64 a.u.
   NGXF,Y,Z  is equivalent  to a cutoff of  21.63, 21.63, 23.27 a.u.

 SYSTEM =                                          
 POSCAR =  generated by phonopy                    

 Startparameter for this run:
   NWRITE =      2    write-flag & timer
   PREC   = accura    normal or accurate (medium, high low for compatibility)
   ISTART =      1    job   : 0-new  1-cont  2-samecut
   ICHARG =      1    charge: 1-file 2-atom 10-const
   ISPIN  =      1    spin polarized calculation?
   LNONCOLLINEAR =      F non collinear calculations
   LSORBIT =      F    spin-orbit coupling
   INIWAV =      1    electr: 0-lowe 1-rand  2-diag
   LASPH  =      F    aspherical Exc in radial PAW
   METAGGA=      F    non-selfconsistent MetaGGA calc.

 Electronic Relaxation 1
   ENCUT  =  400.0 eV  29.40 Ry    5.42 a.u.  20.06 20.06 32.61*2*pi/ulx,y,z
   ENINI  =  400.0     initial cutoff
   ENAUG  =  644.9 eV  augmentation charge cutoff
   NELM   =    300;   NELMIN=  2; NELMDL=  0     # of ELM steps 
   EDIFF  = 0.1E-04   stopping-criterion for ELM
   LREAL  =      F    real-space projection
   NLSPLINE    = F    spline interpolate recip. space projectors
   LCOMPAT=      F    compatible to vasp.4.4
   GGA_COMPAT  = T    GGA compatible to vasp.4.4-vasp.4.6
   LMAXPAW     = -100 max onsite density
   LMAXMIX     =    2 max onsite mixed and CHGCAR
   VOSKOWN=      0    Vosko Wilk Nusair interpolation
   ROPT   =    0.00000   0.00000
 Ionic relaxation
   EDIFFG = -.1E-02   stopping-criterion for IOM
   NSW    =      1    number of steps for IOM
   NBLOCK =      1;   KBLOCK =      1    inner block; outer block 
   IBRION =     -1    ionic relax: 0-MD 1-quasi-New 2-CG
   NFREE  =      0    steps in history (QN), initial steepest desc. (CG)
   ISIF   =      2    stress and relaxation
   IWAVPR =     10    prediction:  0-non 1-charg 2-wave 3-comb
   ISYM   =      2    0-nonsym 1-usesym 2-fastsym
   LCORR  =      T    Harris-Foulkes like correction to forces

   POTIM  = 0.5000    time-step for ionic-motion
   TEIN   =    0.0    initial temperature
   TEBEG  =    0.0;   TEEND  =   0.0 temperature during run
   SMASS  =  -3.00    Nose mass-parameter (am)
   estimated Nose-frequenzy (Omega)   =  0.10E-29 period in steps =****** mass=  -0.346E-26a.u.
   SCALEE = 1.0000    scale energy and forces
   NPACO  =    256;   APACO  = 16.0  distance and # of slots for P.C.
   PSTRESS=    0.0 pullay stress

  Mass of Ions in am
   POMASS =  12.01 16.00
  Ionic Valenz
   ZVAL   =   4.00  6.00
  Atomic Wigner-Seitz radii
   RWIGS  =  -1.00 -1.00
  virtual crystal weights 
   VCA    =   1.00  1.00
   NELECT =     206.0000    total number of electrons
   NUPDOWN=      -1.0000    fix difference up-down

 DOS related values:
   EMIN   =  10.00;   EMAX   =-10.00  energy-range for DOS
   EFERMI =   0.00
   ISMEAR =     0;   SIGMA  =   0.05  broadening in eV -4-tet -1-fermi 0-gaus

 Electronic relaxation 2 (details)
   IALGO  =     68    algorithm
   LDIAG  =      T    sub-space diagonalisation (order eigenvalues)
   LSUBROT=      F    optimize rotation matrix (better conditioning)
   TURBO    =      0    0=normal 1=particle mesh
   IRESTART =      0    0=no restart 2=restart with 2 vectors
   NREBOOT  =      0    no. of reboots
   NMIN     =      0    reboot dimension
   EREF     =   0.00    reference energy to select bands
   IMIX   =      4    mixing-type and parameters
     AMIX     =   0.40;   BMIX     =  1.00
     AMIX_MAG =   1.60;   BMIX_MAG =  1.00
     AMIN     =   0.10
     WC   =   100.;   INIMIX=   1;  MIXPRE=   1;  MAXMIX= -45

 Intra band minimization:
   WEIMIN = 0.0000     energy-eigenvalue tresh-hold
   EBREAK =  0.19E-07  absolut break condition
   DEPER  =   0.30     relativ break condition  

   TIME   =   0.40     timestep for ELM

  volume/ion in A,a.u.               =      51.38       346.73
  Fermi-wavevector in a.u.,A,eV,Ry     =   0.701305  1.325274  6.691736  0.491829
  Thomas-Fermi vector in A             =   1.785695
 
 Write flags
   LWAVE        =      F    write WAVECAR
   LDOWNSAMPLE  =      F    k-point downsampling of WAVECAR
   LCHARG       =      F    write CHGCAR
   LVTOT        =      F    write LOCPOT, total local potential
   LVHAR        =      F    write LOCPOT, Hartree potential only
   LELF         =      F    write electronic localiz. function (ELF)
   LORBIT       =      0    0 simple, 1 ext, 2 COOP (PROOUT), +10 PAW based schemes


 Dipole corrections
   LMONO  =      F    monopole corrections only (constant potential shift)
   LDIPOL =      F    correct potential (dipole corrections)
   IDIPOL =      0    1-x, 2-y, 3-z, 4-all directions 
   EPSILON=  1.0000000 bulk dielectric constant

 Exchange correlation treatment:
   GGA     =    --    GGA type
   LEXCH   =     8    internal setting for exchange type
   VOSKOWN=      0    Vosko Wilk Nusair interpolation
   LHFCALC =     F    Hartree Fock is set to
   LHFONE  =     F    Hartree Fock one center treatment
   AEXX    =    0.0000 exact exchange contribution

 Linear response parameters
   LEPSILON=     F    determine dielectric tensor
   LRPA    =     F    only Hartree local field effects (RPA)
   LNABLA  =     F    use nabla operator in PAW spheres
   LVEL    =     F    velocity operator in full k-point grid
   LINTERFAST=   F  fast interpolation
   KINTER  =     0    interpolate to denser k-point grid
   CSHIFT  =0.1000    complex shift for real part using Kramers Kronig
   OMEGAMAX=  -1.0    maximum frequency
   DEG_THRESHOLD= 0.2000000E-02 threshold for treating states as degnerate
   RTIME   =   -0.100 relaxation time in fs
  (WPLASMAI=    0.000 imaginary part of plasma frequency in eV, 0.658/RTIME)
   DFIELD  = 0.0000000 0.0000000 0.0000000 field for delta impulse in time
 
 Orbital magnetization related:
   ORBITALMAG=     F  switch on orbital magnetization
   LCHIMAG   =     F  perturbation theory with respect to B field
   DQ        =  0.001000  dq finite difference perturbation B field
   LLRAUG    =     F  two centre corrections for induced B field



--------------------------------------------------------------------------------------------------------


 Static calculation
 charge density and potential will be updated during run
 non-spin polarized calculation
 RMM-DIIS sequential band-by-band and
  variant of blocked Davidson during initial phase
 perform sub-space diagonalisation
    before iterative eigenvector-optimisation
 modified Broyden-mixing scheme, WC =      100.0
 initial mixing is a Kerker type mixing with AMIX =  0.4000 and BMIX =      1.0000
 Hartree-type preconditioning will be used
 using additional bands           29
 reciprocal scheme for non local part
 use partial core corrections
 calculate Harris-corrections to forces 
   (improved forces if not selfconsistent)
 use gradient corrections 
 use of overlap-Matrix (Vanderbilt PP)
 Gauss-broadening in eV      SIGMA  =   0.05


--------------------------------------------------------------------------------------------------------


  energy-cutoff  :      400.00
  volume of cell :     2620.42
      direct lattice vectors                 reciprocal lattice vectors
    12.300000191  0.000000000  0.000000000     0.081300812 -0.046939053  0.000000000
     6.150000804 10.652112223  0.000000000     0.000000000  0.093878095  0.000000000
     0.000000000  0.000000000 20.000000000     0.000000000  0.000000000  0.050000000

  length of vectors
    12.300000191 12.300000191 20.000000000     0.093878095  0.093878095  0.050000000


 
 old parameters found on file WAVECAR:
  energy-cutoff  :      400.00
  volume of cell :     2620.42
      direct lattice vectors                 reciprocal lattice vectors
    12.300000191  0.000000000  0.000000000     0.081300812 -0.046939053  0.000000000
     6.150000804 10.652112223  0.000000000     0.000000000  0.093878095  0.000000000
     0.000000000  0.000000000 20.000000000     0.000000000  0.000000000  0.050000000

  length of vectors

 
 k-points in units of 2pi/SCALE and weight: K-POINTS                                
   0.00000000  0.00000000  0.00000000       0.111
   0.02710027 -0.01564635  0.00000000       0.222
   0.00000000  0.03129270  0.00000000       0.222
   0.02710027  0.01564635  0.00000000       0.222
  -0.02710027  0.04693905  0.00000000       0.222
 
 k-points in reciprocal lattice and weights: K-POINTS                                
   0.00000000  0.00000000  0.00000000       0.111
   0.33333333  0.00000000  0.00000000       0.222
   0.00000000  0.33333333  0.00000000       0.222
   0.33333333  0.33333333  0.00000000       0.222
  -0.33333333  0.33333333  0.00000000       0.222
 
 position of ions in fractional coordinates (direct lattice) 
   0.00000000  0.00000000  0.41799748
   0.20000000  0.00000000  0.41799748
   0.40000000  0.00000000  0.41799748
   0.60000000  0.00000000  0.41799748
   0.80000000  0.00000000  0.41799748
   0.00000000  0.20000000  0.41799748
   0.20000000  0.20000000  0.41799748
   0.40000000  0.20000000  0.41799748
   0.60000000  0.20000000  0.41799748
   0.80000000  0.20000000  0.41799748
   0.00000000  0.40000000  0.41799748
   0.20000000  0.40000000  0.41799748
   0.40000000  0.40000000  0.41799748
   0.60000000  0.40000000  0.41799748
   0.80000000  0.40000000  0.41799748
   0.00000000  0.60000000  0.41799748
   0.20000000  0.60000000  0.41799748
   0.40000000  0.60000000  0.41799748
   0.60000000  0.60000000  0.41799748
   0.80000000  0.60000000  0.41799748
   0.00000000  0.80000000  0.41799748
   0.20000000  0.80000000  0.41799748
   0.40000000  0.80000000  0.41799748
   0.60000000  0.80000000  0.41799748
   0.80000000  0.80000000  0.41799748
   0.06666667  0.06666660  0.41800609
   0.26666667  0.06666660  0.41800609
   0.46666667  0.06666660  0.41800609
   0.66666667  0.06666660  0.41800609
   0.86666667  0.06666660  0.41800609
   0.06666667  0.26666660  0.41800609
   0.26666667  0.26666660  0.41800609
   0.46666667  0.26666660  0.41800609
   0.66666667  0.26666660  0.41800609
   0.86666667  0.26666660  0.41800609
   0.06666667  0.46666660  0.41800609
   0.26666667  0.46666660  0.41800609
   0.46666667  0.46666660  0.41800609
   0.66666667  0.46666660  0.41800609
   0.86666667  0.46666660  0.41800609
   0.06666667  0.66666660  0.41800609
   0.26666667  0.66666660  0.41800609
   0.46666667  0.66666660  0.41800609
   0.66666667  0.66666660  0.41800609
   0.86666667  0.66666660  0.41800609
   0.06666667  0.86666660  0.41800609
   0.26666667  0.86666660  0.41800609
   0.46666667  0.86666660  0.41800609
   0.66666667  0.86666660  0.41800609
   0.86666667  0.86666660  0.41800609
   0.39957410  0.40000000  0.46758019
 
 position of ions in cartesian coordinates  (Angst):
   0.00000000  0.00000000  8.35994958
   2.46000004  0.00000000  8.35994958
   4.92000008  0.00000000  8.35994958
   7.38000011  0.00000000  8.35994958
   9.84000015  0.00000000  8.35994958
   1.23000016  2.13042244  8.35994958
   3.69000020  2.13042244  8.35994958
   6.15000024  2.13042244  8.35994958
   8.61000028  2.13042244  8.35994958
  11.07000031  2.13042244  8.35994958
   2.46000032  4.26084489  8.35994958
   4.92000036  4.26084489  8.35994958
   7.38000040  4.26084489  8.35994958
   9.84000044  4.26084489  8.35994958
  12.30000047  4.26084489  8.35994958
   3.69000048  6.39126733  8.35994958
   6.15000052  6.39126733  8.35994958
   8.61000056  6.39126733  8.35994958
  11.07000060  6.39126733  8.35994958
  13.53000064  6.39126733  8.35994958
   4.92000064  8.52168978  8.35994958
   7.38000068  8.52168978  8.35994958
   9.84000072  8.52168978  8.35994958
  12.30000076  8.52168978  8.35994958
  14.76000080  8.52168978  8.35994958
   1.22999970  0.71014014  8.36012184
   3.68999974  0.71014014  8.36012184
   6.14999977  0.71014014  8.36012184
   8.60999981  0.71014014  8.36012184
  11.06999985  0.71014014  8.36012184
   2.45999986  2.84056258  8.36012184
   4.91999990  2.84056258  8.36012184
   7.37999994  2.84056258  8.36012184
   9.83999997  2.84056258  8.36012184
  12.30000001  2.84056258  8.36012184
   3.69000002  4.97098503  8.36012184
   6.15000006  4.97098503  8.36012184
   8.61000010  4.97098503  8.36012184
  11.07000013  4.97098503  8.36012184
  13.53000017  4.97098503  8.36012184
   4.92000018  7.10140747  8.36012184
   7.38000022  7.10140747  8.36012184
   9.84000026  7.10140747  8.36012184
  12.30000030  7.10140747  8.36012184
  14.76000033  7.10140747  8.36012184
   6.15000034  9.23182991  8.36012184
   8.61000038  9.23182991  8.36012184
  11.07000042  9.23182991  8.36012184
  13.53000046  9.23182991  8.36012184
  15.99000049  9.23182991  8.36012184
   7.37476180  4.26084489  9.35160379
 


--------------------------------------------------------------------------------------------------------


 k-point  1 :   0.0000 0.0000 0.0000  plane waves:   47639
 k-point  2 :   0.3333 0.0000 0.0000  plane waves:   47601
 k-point  3 :   0.0000 0.3333 0.0000  plane waves:   47601
 k-point  4 :   0.3333 0.3333 0.0000  plane waves:   47601
 k-point  5 :  -0.3333 0.3333 0.0000  plane waves:   47598

 maximum and minimum number of plane-waves per node :      5975     5928

 maximum number of plane-waves:     47639
 maximum index in each direction: 
   IXMAX=   20   IYMAX=   20   IZMAX=   32
   IXMIN=  -20   IYMIN=  -20   IZMIN=  -32


 parallel 3D FFT for wavefunctions:
    minimum data exchange during FFTs selected (reduces bandwidth)
 parallel 3D FFT for charge:
    minimum data exchange during FFTs selected (reduces bandwidth)


 total amount of memory used by VASP MPI-rank0    90113. kBytes
=======================================================================

   base      :      30000. kBytes
   nonl-proj :       8674. kBytes
   fftplans  :      26248. kBytes
   grid      :      14579. kBytes
   one-center:         21. kBytes
   wavefun   :      10591. kBytes
 
     INWAV:  cpu time    0.8346: real time    0.8352
 Broyden mixing: mesh for mixing (old mesh)
   NGX = 41   NGY = 41   NGZ = 65
  (NGX  =160   NGY  =160   NGZ  =280)
  gives a total of 109265 points

 initial charge density was supplied:
 number of electron     206.0000000 magnetization 
 keeping initial charge density in first step


--------------------------------------------------------------------------------------------------------


 Maximum index for augmentation-charges         1119 (set IRDMAX)


--------------------------------------------------------------------------------------------------------


 First call to EWALD:  gamma=   0.129
 Maximum number of real-space cells 3x 3x 2
 Maximum number of reciprocal cells 3x 3x 4

    FEWALD:  cpu time    0.0014: real time    0.0029


--------------------------------------- Iteration      1(   1)  ---------------------------------------


    POTLOK:  cpu time    0.1062: real time    0.1092
    SETDIJ:  cpu time    0.0871: real time    0.0885
     EDDAV:  cpu time    4.1170: real time    4.1205
       DOS:  cpu time    0.0005: real time    0.0005
    CHARGE:  cpu time    0.3935: real time    0.3939
    MIXING:  cpu time    0.0060: real time    0.0063
    --------------------------------------------
      LOOP:  cpu time    4.7103: real time    4.7189

 eigenvalue-minimisations  :  1356
 total energy-change (2. order) :-0.4527719E+03  (-0.2844391E+02)
 number of electron     206.0000000 magnetization 
 augmentation part        5.5144802 magnetization 

 Broyden mixing:
  rms(total) = 0.49303E-01    rms(broyden)= 0.49231E-01
  rms(prec ) = 0.50672E-01
  weight for this iteration     100.00

 Free energy of the ion-electron system (eV)
  ---------------------------------------------------
  alpha Z        PSCENC =        82.54348252
  Ewald energy   TEWEN  =     34523.76091561
  -Hartree energ DENC   =    -41040.38218103
  -exchange      EXHF   =         0.00000000
  -V(xc)+E(xc)   XCENC  =       721.43906155
  PAW double counting   =     22781.19595426   -22817.52509957
  entropy T*S    EENTRO =        -0.00089045
  eigenvalues    EBANDS =     -2492.42755110
  atomic energy  EATOM  =      7788.62438962
  Solvation  Ediel_sol  =         0.00000000
  ---------------------------------------------------
  free energy    TOTEN  =      -452.77191860 eV

  energy without entropy =     -452.77102815  energy(sigma->0) =     -452.77147338


--------------------------------------------------------------------------------------------------------




--------------------------------------- Iteration      1(   2)  ---------------------------------------


    POTLOK:  cpu time    0.0977: real time    0.0993
    SETDIJ:  cpu time    0.0794: real time    0.0813
    EDDIAG:  cpu time    0.8852: real time    0.8861
  RMM-DIIS:  cpu time    3.7749: real time    3.7793
    ORTHCH:  cpu time    0.0409: real time    0.0410
       DOS:  cpu time    0.0004: real time    0.0004
    CHARGE:  cpu time    0.3906: real time    0.3906
    MIXING:  cpu time    0.0052: real time    0.0052
    --------------------------------------------
      LOOP:  cpu time    5.2742: real time    5.2833

 eigenvalue-minimisations  :  1431
 total energy-change (2. order) :-0.9905811E+00  (-0.9929250E+00)
 number of electron     206.0000000 magnetization 
 augmentation part        5.5458179 magnetization 

 Broyden mixing:
  rms(total) = 0.22387E-01    rms(broyden)= 0.22334E-01
  rms(prec ) = 0.23469E-01
  weight for this iteration     100.00

 eigenvalues of (default mixing * dielectric matrix)
  average eigenvalue GAMMA=   0.7533
  0.7533

 Free energy of the ion-electron system (eV)
  ---------------------------------------------------
  alpha Z        PSCENC =        82.54348252
  Ewald energy   TEWEN  =     34523.76091561
  -Hartree energ DENC   =    -41038.17692480
  -exchange      EXHF   =         0.00000000
  -V(xc)+E(xc)   XCENC  =       721.34794172
  PAW double counting   =     22842.87831260   -22879.16504076
  entropy T*S    EENTRO =        -0.00019307
  eigenvalues    EBANDS =     -2495.57538310
  atomic energy  EATOM  =      7788.62438962
  Solvation  Ediel_sol  =         0.00000000
  ---------------------------------------------------
  free energy    TOTEN  =      -453.76249967 eV

  energy without entropy =     -453.76230659  energy(sigma->0) =     -453.76240313


--------------------------------------------------------------------------------------------------------




--------------------------------------- Iteration      1(   3)  ---------------------------------------


    POTLOK:  cpu time    0.0985: real time    0.1000
    SETDIJ:  cpu time    0.0796: real time    0.0810
    EDDIAG:  cpu time    0.8906: real time    0.8924
  RMM-DIIS:  cpu time    4.2037: real time    4.2072
    ORTHCH:  cpu time    0.0416: real time    0.0416
       DOS:  cpu time    0.0004: real time    0.0004
    CHARGE:  cpu time    0.3911: real time    0.3916
    MIXING:  cpu time    0.0044: real time    0.0044
    --------------------------------------------
      LOOP:  cpu time    5.7098: real time    5.7186

 eigenvalue-minimisations  :  1597
 total energy-change (2. order) :-0.5193189E-01  (-0.5871668E-01)
 number of electron     206.0000000 magnetization 
 augmentation part        5.5488926 magnetization 

 Broyden mixing:
  rms(total) = 0.17462E-01    rms(broyden)= 0.17451E-01
  rms(prec ) = 0.18245E-01
  weight for this iteration     100.00

 eigenvalues of (default mixing * dielectric matrix)
  average eigenvalue GAMMA=   0.8804
  0.8804  0.8804

 Free energy of the ion-electron system (eV)
  ---------------------------------------------------
  alpha Z        PSCENC =        82.54348252
  Ewald energy   TEWEN  =     34523.76091561
  -Hartree energ DENC   =    -41038.90422461
  -exchange      EXHF   =         0.00000000
  -V(xc)+E(xc)   XCENC  =       721.38179549
  PAW double counting   =     22834.47124625   -22870.77786822
  entropy T*S    EENTRO =        -0.00020925
  eigenvalues    EBANDS =     -2494.91395895
  atomic energy  EATOM  =      7788.62438962
  Solvation  Ediel_sol  =         0.00000000
  ---------------------------------------------------
  free energy    TOTEN  =      -453.81443155 eV

  energy without entropy =     -453.81422230  energy(sigma->0) =     -453.81432693


--------------------------------------------------------------------------------------------------------




--------------------------------------- Iteration      1(   4)  ---------------------------------------


    POTLOK:  cpu time    0.0974: real time    0.0980
    SETDIJ:  cpu time    0.0792: real time    0.0803
    EDDIAG:  cpu time    0.8814: real time    0.8822
  RMM-DIIS:  cpu time    4.0935: real time    4.0966
    ORTHCH:  cpu time    0.0411: real time    0.0411
       DOS:  cpu time    0.0003: real time    0.0003
    CHARGE:  cpu time    0.3917: real time    0.3919
    MIXING:  cpu time    0.0088: real time    0.0088
    --------------------------------------------
      LOOP:  cpu time    5.5934: real time    5.5992

 eigenvalue-minimisations  :  1574
 total energy-change (2. order) :-0.3752543E-02  (-0.4078301E-02)
 number of electron     206.0000000 magnetization 
 augmentation part        5.5515412 magnetization 

 Broyden mixing:
  rms(total) = 0.15150E-01    rms(broyden)= 0.15147E-01
  rms(prec ) = 0.15742E-01
  weight for this iteration     100.00

 eigenvalues of (default mixing * dielectric matrix)
  average eigenvalue GAMMA=   1.1631
  1.4711  1.4711  0.5471

 Free energy of the ion-electron system (eV)
  ---------------------------------------------------
  alpha Z        PSCENC =        82.54348252
  Ewald energy   TEWEN  =     34523.76091561
  -Hartree energ DENC   =    -41039.46472432
  -exchange      EXHF   =         0.00000000
  -V(xc)+E(xc)   XCENC  =       721.40609386
  PAW double counting   =     22824.35307775   -22860.67472823
  entropy T*S    EENTRO =        -0.00017188
  eigenvalues    EBANDS =     -2494.36651901
  atomic energy  EATOM  =      7788.62438962
  Solvation  Ediel_sol  =         0.00000000
  ---------------------------------------------------
  free energy    TOTEN  =      -453.81818410 eV

  energy without entropy =     -453.81801221  energy(sigma->0) =     -453.81809815


--------------------------------------------------------------------------------------------------------




--------------------------------------- Iteration      1(   5)  ---------------------------------------


    POTLOK:  cpu time    0.0992: real time    0.0997
    SETDIJ:  cpu time    0.0795: real time    0.0796
    EDDIAG:  cpu time    0.8845: real time    0.8849
  RMM-DIIS:  cpu time    3.9428: real time    3.9463
    ORTHCH:  cpu time    0.0490: real time    0.0490
       DOS:  cpu time    0.0003: real time    0.0003
    CHARGE:  cpu time    0.3914: real time    0.3919
    MIXING:  cpu time    0.0050: real time    0.0050
    --------------------------------------------
      LOOP:  cpu time    5.4516: real time    5.4566

 eigenvalue-minimisations  :  1505
 total energy-change (2. order) :-0.9312770E-04  (-0.3844606E-03)
 number of electron     206.0000000 magnetization 
 augmentation part        5.5498510 magnetization 

 Broyden mixing:
  rms(total) = 0.29149E-02    rms(broyden)= 0.29084E-02
  rms(prec ) = 0.31319E-02
  weight for this iteration     100.00

 eigenvalues of (default mixing * dielectric matrix)
  average eigenvalue GAMMA=   1.1723
  1.5581  1.3935  1.1709  0.5669

 Free energy of the ion-electron system (eV)
  ---------------------------------------------------
  alpha Z        PSCENC =        82.54348252
  Ewald energy   TEWEN  =     34523.76091561
  -Hartree energ DENC   =    -41040.80052293
  -exchange      EXHF   =         0.00000000
  -V(xc)+E(xc)   XCENC  =       721.46125454
  PAW double counting   =     22797.27917164   -22833.63363148
  entropy T*S    EENTRO =        -0.00018289
  eigenvalues    EBANDS =     -2493.05315385
  atomic energy  EATOM  =      7788.62438962
  Solvation  Ediel_sol  =         0.00000000
  ---------------------------------------------------
  free energy    TOTEN  =      -453.81827722 eV

  energy without entropy =     -453.81809433  energy(sigma->0) =     -453.81818578


--------------------------------------------------------------------------------------------------------




--------------------------------------- Iteration      1(   6)  ---------------------------------------


    POTLOK:  cpu time    0.0971: real time    0.0997
    SETDIJ:  cpu time    0.0794: real time    0.0810
    EDDIAG:  cpu time    0.8879: real time    0.8889
  RMM-DIIS:  cpu time    3.8351: real time    3.8385
    ORTHCH:  cpu time    0.0410: real time    0.0410
       DOS:  cpu time    0.0004: real time    0.0004
    CHARGE:  cpu time    0.3903: real time    0.3905
    MIXING:  cpu time    0.0051: real time    0.0051
    --------------------------------------------
      LOOP:  cpu time    5.3362: real time    5.3451

 eigenvalue-minimisations  :  1487
 total energy-change (2. order) :-0.4319099E-04  (-0.3727346E-04)
 number of electron     206.0000000 magnetization 
 augmentation part        5.5496571 magnetization 

 Broyden mixing:
  rms(total) = 0.13093E-02    rms(broyden)= 0.13078E-02
  rms(prec ) = 0.14015E-02
  weight for this iteration     100.00

 eigenvalues of (default mixing * dielectric matrix)
  average eigenvalue GAMMA=   1.2213
  1.9644  1.3569  1.3569  0.8712  0.5571

 Free energy of the ion-electron system (eV)
  ---------------------------------------------------
  alpha Z        PSCENC =        82.54348252
  Ewald energy   TEWEN  =     34523.76091561
  -Hartree energ DENC   =    -41040.96801723
  -exchange      EXHF   =         0.00000000
  -V(xc)+E(xc)   XCENC  =       721.46754858
  PAW double counting   =     22793.43891011   -22829.79726108
  entropy T*S    EENTRO =        -0.00018347
  eigenvalues    EBANDS =     -2492.88810507
  atomic energy  EATOM  =      7788.62438962
  Solvation  Ediel_sol  =         0.00000000
  ---------------------------------------------------
  free energy    TOTEN  =      -453.81832042 eV

  energy without entropy =     -453.81813694  energy(sigma->0) =     -453.81822868


--------------------------------------------------------------------------------------------------------




--------------------------------------- Iteration      1(   7)  ---------------------------------------


    POTLOK:  cpu time    0.0962: real time    0.0964
    SETDIJ:  cpu time    0.0797: real time    0.0797
    EDDIAG:  cpu time    0.8957: real time    0.8965
  RMM-DIIS:  cpu time    2.8331: real time    2.8351
    ORTHCH:  cpu time    0.0415: real time    0.0415
       DOS:  cpu time    0.0003: real time    0.0003
    --------------------------------------------
      LOOP:  cpu time    3.9465: real time    3.9495

 eigenvalue-minimisations  :  1019
 total energy-change (2. order) :-0.7806249E-05  (-0.2000937E-05)
 number of electron     206.0000000 magnetization 
 augmentation part        5.5496571 magnetization 

 Free energy of the ion-electron system (eV)
  ---------------------------------------------------
  alpha Z        PSCENC =        82.54348252
  Ewald energy   TEWEN  =     34523.76091561
  -Hartree energ DENC   =    -41040.91970260
  -exchange      EXHF   =         0.00000000
  -V(xc)+E(xc)   XCENC  =       721.46445469
  PAW double counting   =     22795.04892862   -22831.40584947
  entropy T*S    EENTRO =        -0.00018470
  eigenvalues    EBANDS =     -2492.93476251
  atomic energy  EATOM  =      7788.62438962
  Solvation  Ediel_sol  =         0.00000000
  ---------------------------------------------------
  free energy    TOTEN  =      -453.81832822 eV

  energy without entropy =     -453.81814352  energy(sigma->0) =     -453.81823587


--------------------------------------------------------------------------------------------------------




 average (electrostatic) potential at core
  the test charge radii are     0.6991  0.7215
  (the norm of the test charge is              1.0000)
       1 -58.2564       2 -58.2571       3 -58.2008       4 -58.0569       5 -58.2022
       6 -58.2566       7 -58.2721       8 -58.1342       9 -58.1343      10 -58.2751
      11 -58.2018      12 -58.1341      13 -60.7932      14 -58.1346      15 -58.2014
      16 -58.0535      17 -58.1345      18 -58.1346      19 -58.0604      20 -58.0623
      21 -58.2025      22 -58.2736      23 -58.2005      24 -58.0626      25 -58.0619
      26 -58.3763      27 -58.2882      28 -58.2205      29 -58.2211      30 -58.2902
      31 -58.2875      32 -58.3082      33 -58.8154      34 -58.3134      35 -58.2905
      36 -58.2207      37 -58.8346      38 -58.7963      39 -58.2207      40 -58.2205
      41 -58.2211      42 -58.3108      43 -58.2206      44 -58.1622      45 -58.1596
      46 -58.2884      47 -58.2895      48 -58.2206      49 -58.1610      50 -58.2203
      51 -81.7220
 
 
 
 E-fermi :  -3.0115     XC(G=0):  -2.2113     alpha+bet : -1.9409


 k-point     1 :       0.0000    0.0000    0.0000
  band No.  band energies     occupation 
      1     -31.9318      2.00000
      2     -22.2692      2.00000
      3     -21.5083      2.00000
      4     -21.5055      2.00000
      5     -21.3928      2.00000
      6     -21.3926      2.00000
      7     -21.3910      2.00000
      8     -20.8755      2.00000
      9     -19.8973      2.00000
     10     -19.8903      2.00000
     11     -19.5476      2.00000
     12     -19.5475      2.00000
     13     -19.5374      2.00000
     14     -19.1895      2.00000
     15     -18.9100      2.00000
     16     -18.9066      2.00000
     17     -18.6421      2.00000
     18     -18.6416      2.00000
     19     -18.6411      2.00000
     20     -17.8834      2.00000
     21     -17.0583      2.00000
     22     -17.0476      2.00000
     23     -16.4766      2.00000
     24     -16.4560      2.00000
     25     -16.4560      2.00000
     26     -16.0461      2.00000
     27     -16.0096      2.00000
     28     -16.0090      2.00000
     29     -15.4960      2.00000
     30     -15.4959      2.00000
     31     -15.4915      2.00000
     32     -15.0848      2.00000
     33     -14.6443      2.00000
     34     -14.6408      2.00000
     35     -14.1490      2.00000
     36     -14.1481      2.00000
     37     -14.1415      2.00000
     38     -13.9622      2.00000
     39     -13.0210      2.00000
     40     -13.0144      2.00000
     41     -12.0484      2.00000
     42     -11.7647      2.00000
     43     -11.7635      2.00000
     44     -11.7608      2.00000
     45     -11.6889      2.00000
     46     -11.6887      2.00000
     47     -11.6498      2.00000
     48     -11.6478      2.00000
     49     -11.6477      2.00000
     50     -11.6469      2.00000
     51     -10.8084      2.00000
     52     -10.8069      2.00000
     53     -10.4532      2.00000
     54     -10.3320      2.00000
     55     -10.2885      2.00000
     56     -10.2877      2.00000
     57     -10.2688      2.00000
     58     -10.0994      2.00000
     59      -9.6893      2.00000
     60      -9.6863      2.00000
     61      -9.3247      2.00000
     62      -9.3235      2.00000
     63      -9.2975      2.00000
     64      -9.2791      2.00000
     65      -9.2791      2.00000
     66      -9.0457      2.00000
     67      -9.0038      2.00000
     68      -9.0028      2.00000
     69      -8.9467      2.00000
     70      -8.9389      2.00000
     71      -8.9387      2.00000
     72      -8.9385      2.00000
     73      -8.9177      2.00000
     74      -8.9172      2.00000
     75      -8.8916      2.00000
     76      -8.4397      2.00000
     77      -7.8034      2.00000
     78      -7.8000      2.00000
     79      -7.3232      2.00000
     80      -7.3226      2.00000
     81      -7.3081      2.00000
     82      -7.3003      2.00000
     83      -7.2989      2.00000
     84      -7.2977      2.00000
     85      -7.1592      2.00000
     86      -7.1590      2.00000
     87      -7.1535      2.00000
     88      -6.7494      2.00000
     89      -6.5063      2.00000
     90      -6.5032      2.00000
     91      -6.2648      2.00000
     92      -6.2449      2.00000
     93      -6.2449      2.00000
     94      -5.9225      2.00000
     95      -5.9224      2.00000
     96      -5.1953      2.00000
     97      -4.7599      2.00000
     98      -4.7558      2.00000
     99      -4.2694      2.00000
    100      -4.2643      2.00000
    101      -4.2642      2.00000
    102      -3.2124      2.00000
    103      -3.1961      2.00000
    104      -2.9166      0.00727
    105      -1.4601      0.00000
    106      -1.4554      0.00000
    107      -1.4551      0.00000
    108      -0.9908      0.00000
    109      -0.9823      0.00000
    110      -0.5423      0.00000
    111       0.4191      0.00000
    112       0.4233      0.00000
    113       0.4236      0.00000
    114       0.5626      0.00000
    115       0.8434      0.00000
    116       0.8508      0.00000
    117       1.2943      0.00000
    118       1.3370      0.00000
    119       1.6810      0.00000
    120       1.8022      0.00000
    121       1.8044      0.00000
    122       1.8083      0.00000
    123       1.8238      0.00000
    124       1.8253      0.00000
    125       2.0245      0.00000
    126       2.1780      0.00000
    127       2.1810      0.00000
    128       2.1815      0.00000
    129       2.3439      0.00000
    130       2.3522      0.00000
    131       2.5966      0.00000
    132       2.6451      0.00000

 k-point     2 :       0.3333    0.0000    0.0000
  band No.  band energies     occupation 
      1     -31.9318      2.00000
      2     -22.1874      2.00000
      3     -21.8683      2.00000
      4     -21.6620      2.00000
      5     -21.4548      2.00000
      6     -21.0354      2.00000
      7     -20.9014      2.00000
      8     -20.7321      2.00000
      9     -20.4214      2.00000
     10     -20.1618      2.00000
     11     -19.7919      2.00000
     12     -19.7107      2.00000
     13     -19.3245      2.00000
     14     -19.2432      2.00000
     15     -19.0706      2.00000
     16     -18.5931      2.00000
     17     -18.4649      2.00000
     18     -18.1265      2.00000
     19     -18.0752      2.00000
     20     -17.5941      2.00000
     21     -17.5029      2.00000
     22     -17.2991      2.00000
     23     -17.2780      2.00000
     24     -16.8521      2.00000
     25     -16.6725      2.00000
     26     -16.1818      2.00000
     27     -15.9931      2.00000
     28     -15.8617      2.00000
     29     -15.2968      2.00000
     30     -15.1812      2.00000
     31     -15.1369      2.00000
     32     -14.8838      2.00000
     33     -14.7806      2.00000
     34     -14.4782      2.00000
     35     -14.4545      2.00000
     36     -13.7835      2.00000
     37     -13.7775      2.00000
     38     -13.1981      2.00000
     39     -13.0900      2.00000
     40     -12.9365      2.00000
     41     -12.9038      2.00000
     42     -12.5868      2.00000
     43     -12.5514      2.00000
     44     -12.3917      2.00000
     45     -12.0274      2.00000
     46     -11.6724      2.00000
     47     -11.4566      2.00000
     48     -11.2958      2.00000
     49     -11.1300      2.00000
     50     -10.9261      2.00000
     51     -10.8504      2.00000
     52     -10.5838      2.00000
     53     -10.5331      2.00000
     54     -10.3024      2.00000
     55     -10.2352      2.00000
     56     -10.1631      2.00000
     57     -10.0559      2.00000
     58      -9.8515      2.00000
     59      -9.8196      2.00000
     60      -9.6590      2.00000
     61      -9.6053      2.00000
     62      -9.5623      2.00000
     63      -9.5265      2.00000
     64      -9.3705      2.00000
     65      -9.3401      2.00000
     66      -9.2591      2.00000
     67      -9.1746      2.00000
     68      -9.0981      2.00000
     69      -9.0816      2.00000
     70      -8.8625      2.00000
     71      -8.7123      2.00000
     72      -8.6635      2.00000
     73      -8.5039      2.00000
     74      -8.4021      2.00000
     75      -8.2877      2.00000
     76      -8.1316      2.00000
     77      -8.0942      2.00000
     78      -8.0652      2.00000
     79      -7.9695      2.00000
     80      -7.8064      2.00000
     81      -7.6206      2.00000
     82      -7.3598      2.00000
     83      -7.3336      2.00000
     84      -7.2645      2.00000
     85      -7.1950      2.00000
     86      -6.9182      2.00000
     87      -6.8707      2.00000
     88      -6.6928      2.00000
     89      -6.5915      2.00000
     90      -6.3477      2.00000
     91      -6.1835      2.00000
     92      -6.0720      2.00000
     93      -5.9193      2.00000
     94      -5.7360      2.00000
     95      -5.6397      2.00000
     96      -5.3195      2.00000
     97      -5.1112      2.00000
     98      -4.9678      2.00000
     99      -4.9205      2.00000
    100      -4.2661      2.00000
    101      -4.1647      2.00000
    102      -3.3287      2.00000
    103      -3.1330      1.99941
    104      -2.7949      0.00000
    105      -1.5904      0.00000
    106      -1.4221      0.00000
    107      -0.8378      0.00000
    108      -0.8168      0.00000
    109      -0.7040      0.00000
    110      -0.6668      0.00000
    111      -0.1214      0.00000
    112      -0.0050      0.00000
    113       0.2950      0.00000
    114       0.7054      0.00000
    115       0.7281      0.00000
    116       1.1018      0.00000
    117       1.1791      0.00000
    118       1.3655      0.00000
    119       1.4627      0.00000
    120       1.5367      0.00000
    121       1.5688      0.00000
    122       1.6360      0.00000
    123       1.8300      0.00000
    124       1.9073      0.00000
    125       2.0379      0.00000
    126       2.2248      0.00000
    127       2.2700      0.00000
    128       2.3308      0.00000
    129       2.3374      0.00000
    130       2.3928      0.00000
    131       2.4502      0.00000
    132       2.7928      0.00000

 k-point     3 :       0.0000    0.3333    0.0000
  band No.  band energies     occupation 
      1     -31.9318      2.00000
      2     -22.1873      2.00000
      3     -21.8682      2.00000
      4     -21.6627      2.00000
      5     -21.4544      2.00000
      6     -21.0361      2.00000
      7     -20.9003      2.00000
      8     -20.7313      2.00000
      9     -20.4221      2.00000
     10     -20.1619      2.00000
     11     -19.7910      2.00000
     12     -19.7128      2.00000
     13     -19.3246      2.00000
     14     -19.2435      2.00000
     15     -19.0689      2.00000
     16     -18.5937      2.00000
     17     -18.4639      2.00000
     18     -18.1277      2.00000
     19     -18.0734      2.00000
     20     -17.5935      2.00000
     21     -17.5042      2.00000
     22     -17.2990      2.00000
     23     -17.2786      2.00000
     24     -16.8518      2.00000
     25     -16.6737      2.00000
     26     -16.1820      2.00000
     27     -15.9919      2.00000
     28     -15.8627      2.00000
     29     -15.2965      2.00000
     30     -15.1801      2.00000
     31     -15.1374      2.00000
     32     -14.8835      2.00000
     33     -14.7805      2.00000
     34     -14.4778      2.00000
     35     -14.4547      2.00000
     36     -13.7833      2.00000
     37     -13.7783      2.00000
     38     -13.1978      2.00000
     39     -13.0903      2.00000
     40     -12.9361      2.00000
     41     -12.9040      2.00000
     42     -12.5877      2.00000
     43     -12.5514      2.00000
     44     -12.3918      2.00000
     45     -12.0276      2.00000
     46     -11.6723      2.00000
     47     -11.4554      2.00000
     48     -11.2959      2.00000
     49     -11.1301      2.00000
     50     -10.9258      2.00000
     51     -10.8501      2.00000
     52     -10.5840      2.00000
     53     -10.5332      2.00000
     54     -10.3024      2.00000
     55     -10.2351      2.00000
     56     -10.1636      2.00000
     57     -10.0558      2.00000
     58      -9.8514      2.00000
     59      -9.8196      2.00000
     60      -9.6589      2.00000
     61      -9.6056      2.00000
     62      -9.5624      2.00000
     63      -9.5265      2.00000
     64      -9.3709      2.00000
     65      -9.3397      2.00000
     66      -9.2593      2.00000
     67      -9.1745      2.00000
     68      -9.0979      2.00000
     69      -9.0817      2.00000
     70      -8.8631      2.00000
     71      -8.7127      2.00000
     72      -8.6629      2.00000
     73      -8.5033      2.00000
     74      -8.4020      2.00000
     75      -8.2880      2.00000
     76      -8.1318      2.00000
     77      -8.0939      2.00000
     78      -8.0648      2.00000
     79      -7.9695      2.00000
     80      -7.8067      2.00000
     81      -7.6200      2.00000
     82      -7.3597      2.00000
     83      -7.3344      2.00000
     84      -7.2645      2.00000
     85      -7.1957      2.00000
     86      -6.9181      2.00000
     87      -6.8710      2.00000
     88      -6.6928      2.00000
     89      -6.5891      2.00000
     90      -6.3478      2.00000
     91      -6.1839      2.00000
     92      -6.0721      2.00000
     93      -5.9196      2.00000
     94      -5.7368      2.00000
     95      -5.6376      2.00000
     96      -5.3201      2.00000
     97      -5.1122      2.00000
     98      -4.9676      2.00000
     99      -4.9205      2.00000
    100      -4.2676      2.00000
    101      -4.1639      2.00000
    102      -3.3277      2.00000
    103      -3.1267      1.99888
    104      -2.8027      0.00000
    105      -1.5891      0.00000
    106      -1.4218      0.00000
    107      -0.8375      0.00000
    108      -0.8165      0.00000
    109      -0.7040      0.00000
    110      -0.6661      0.00000
    111      -0.1250      0.00000
    112      -0.0023      0.00000
    113       0.2946      0.00000
    114       0.7054      0.00000
    115       0.7286      0.00000
    116       1.1008      0.00000
    117       1.1768      0.00000
    118       1.3671      0.00000
    119       1.4635      0.00000
    120       1.5369      0.00000
    121       1.5689      0.00000
    122       1.6362      0.00000
    123       1.8310      0.00000
    124       1.9085      0.00000
    125       2.0427      0.00000
    126       2.2296      0.00000
    127       2.2758      0.00000
    128       2.3363      0.00000
    129       2.4214      0.00000
    130       2.7401      0.00000
    131       3.2516      0.00000
    132       3.6090      0.00000

 k-point     4 :       0.3333    0.3333    0.0000
  band No.  band energies     occupation 
      1     -31.9318      2.00000
      2     -22.1873      2.00000
      3     -21.8681      2.00000
      4     -21.6634      2.00000
      5     -21.4541      2.00000
      6     -21.0367      2.00000
      7     -20.8993      2.00000
      8     -20.7305      2.00000
      9     -20.4229      2.00000
     10     -20.1620      2.00000
     11     -19.7902      2.00000
     12     -19.7150      2.00000
     13     -19.3246      2.00000
     14     -19.2438      2.00000
     15     -19.0672      2.00000
     16     -18.5943      2.00000
     17     -18.4629      2.00000
     18     -18.1290      2.00000
     19     -18.0718      2.00000
     20     -17.5929      2.00000
     21     -17.5055      2.00000
     22     -17.2988      2.00000
     23     -17.2792      2.00000
     24     -16.8514      2.00000
     25     -16.6748      2.00000
     26     -16.1821      2.00000
     27     -15.9907      2.00000
     28     -15.8636      2.00000
     29     -15.2963      2.00000
     30     -15.1789      2.00000
     31     -15.1379      2.00000
     32     -14.8833      2.00000
     33     -14.7804      2.00000
     34     -14.4774      2.00000
     35     -14.4550      2.00000
     36     -13.7822      2.00000
     37     -13.7800      2.00000
     38     -13.1974      2.00000
     39     -13.0907      2.00000
     40     -12.9358      2.00000
     41     -12.9043      2.00000
     42     -12.5886      2.00000
     43     -12.5513      2.00000
     44     -12.3919      2.00000
     45     -12.0278      2.00000
     46     -11.6722      2.00000
     47     -11.4542      2.00000
     48     -11.2960      2.00000
     49     -11.1302      2.00000
     50     -10.9254      2.00000
     51     -10.8498      2.00000
     52     -10.5842      2.00000
     53     -10.5334      2.00000
     54     -10.3023      2.00000
     55     -10.2351      2.00000
     56     -10.1642      2.00000
     57     -10.0556      2.00000
     58      -9.8513      2.00000
     59      -9.8196      2.00000
     60      -9.6589      2.00000
     61      -9.6060      2.00000
     62      -9.5626      2.00000
     63      -9.5266      2.00000
     64      -9.3712      2.00000
     65      -9.3394      2.00000
     66      -9.2594      2.00000
     67      -9.1743      2.00000
     68      -9.0978      2.00000
     69      -9.0818      2.00000
     70      -8.8636      2.00000
     71      -8.7131      2.00000
     72      -8.6624      2.00000
     73      -8.5026      2.00000
     74      -8.4018      2.00000
     75      -8.2882      2.00000
     76      -8.1319      2.00000
     77      -8.0936      2.00000
     78      -8.0645      2.00000
     79      -7.9696      2.00000
     80      -7.8070      2.00000
     81      -7.6195      2.00000
     82      -7.3595      2.00000
     83      -7.3354      2.00000
     84      -7.2646      2.00000
     85      -7.1964      2.00000
     86      -6.9181      2.00000
     87      -6.8714      2.00000
     88      -6.6929      2.00000
     89      -6.5868      2.00000
     90      -6.3479      2.00000
     91      -6.1843      2.00000
     92      -6.0723      2.00000
     93      -5.9198      2.00000
     94      -5.7377      2.00000
     95      -5.6356      2.00000
     96      -5.3206      2.00000
     97      -5.1132      2.00000
     98      -4.9674      2.00000
     99      -4.9206      2.00000
    100      -4.2691      2.00000
    101      -4.1633      2.00000
    102      -3.3262      2.00000
    103      -3.1211      1.99807
    104      -2.8102      0.00000
    105      -1.5877      0.00000
    106      -1.4216      0.00000
    107      -0.8372      0.00000
    108      -0.8162      0.00000
    109      -0.7040      0.00000
    110      -0.6655      0.00000
    111      -0.1285      0.00000
    112       0.0003      0.00000
    113       0.2941      0.00000
    114       0.7056      0.00000
    115       0.7293      0.00000
    116       1.1004      0.00000
    117       1.1751      0.00000
    118       1.3699      0.00000
    119       1.4642      0.00000
    120       1.5600      0.00000
    121       1.5772      0.00000
    122       1.7480      0.00000
    123       1.8321      0.00000
    124       2.1795      0.00000
    125       2.3350      0.00000
    126       2.3935      0.00000
    127       2.6221      0.00000
    128       2.7871      0.00000
    129       2.8420      0.00000
    130       3.1986      0.00000
    131       3.5955      0.00000
    132       4.1703      0.00000

 k-point     5 :      -0.3333    0.3333    0.0000
  band No.  band energies     occupation 
      1     -31.9319      2.00000
      2     -22.0787      2.00000
      3     -22.0068      2.00000
      4     -21.8013      2.00000
      5     -21.1761      2.00000
      6     -21.1525      2.00000
      7     -20.8665      2.00000
      8     -20.4237      2.00000
      9     -20.3471      2.00000
     10     -20.1700      2.00000
     11     -20.1481      2.00000
     12     -20.1410      2.00000
     13     -19.5676      2.00000
     14     -18.8471      2.00000
     15     -18.6940      2.00000
     16     -18.3708      2.00000
     17     -18.3464      2.00000
     18     -18.3343      2.00000
     19     -17.9293      2.00000
     20     -17.8120      2.00000
     21     -17.6062      2.00000
     22     -17.2593      2.00000
     23     -17.1554      2.00000
     24     -17.1250      2.00000
     25     -16.5403      2.00000
     26     -16.4577      2.00000
     27     -16.2974      2.00000
     28     -15.8062      2.00000
     29     -15.6340      2.00000
     30     -15.1717      2.00000
     31     -15.0029      2.00000
     32     -14.6720      2.00000
     33     -13.9591      2.00000
     34     -13.9375      2.00000
     35     -13.9232      2.00000
     36     -13.8727      2.00000
     37     -13.8625      2.00000
     38     -13.7899      2.00000
     39     -13.6741      2.00000
     40     -13.4947      2.00000
     41     -13.0552      2.00000
     42     -12.4878      2.00000
     43     -12.2530      2.00000
     44     -12.0740      2.00000
     45     -11.8264      2.00000
     46     -11.7866      2.00000
     47     -11.5621      2.00000
     48     -11.5443      2.00000
     49     -11.5210      2.00000
     50     -10.9362      2.00000
     51     -10.8264      2.00000
     52     -10.5581      2.00000
     53     -10.2037      2.00000
     54     -10.2022      2.00000
     55     -10.1921      2.00000
     56     -10.0924      2.00000
     57     -10.0689      2.00000
     58     -10.0202      2.00000
     59      -9.9039      2.00000
     60      -9.7504      2.00000
     61      -9.7488      2.00000
     62      -9.5637      2.00000
     63      -9.4396      2.00000
     64      -9.4067      2.00000
     65      -9.2022      2.00000
     66      -9.0458      2.00000
     67      -9.0320      2.00000
     68      -8.9017      2.00000
     69      -8.8850      2.00000
     70      -8.6862      2.00000
     71      -8.6359      2.00000
     72      -8.6337      2.00000
     73      -8.6223      2.00000
     74      -8.5829      2.00000
     75      -8.3731      2.00000
     76      -8.2512      2.00000
     77      -8.1631      2.00000
     78      -8.0344      2.00000
     79      -7.9821      2.00000
     80      -7.8777      2.00000
     81      -7.8558      2.00000
     82      -7.8528      2.00000
     83      -7.2257      2.00000
     84      -7.1861      2.00000
     85      -7.1264      2.00000
     86      -6.8843      2.00000
     87      -6.7205      2.00000
     88      -6.6114      2.00000
     89      -6.4579      2.00000
     90      -6.2657      2.00000
     91      -6.0993      2.00000
     92      -5.9152      2.00000
     93      -5.9086      2.00000
     94      -5.8955      2.00000
     95      -5.4489      2.00000
     96      -5.4246      2.00000
     97      -5.1195      2.00000
     98      -5.0117      2.00000
     99      -4.9779      2.00000
    100      -4.9557      2.00000
    101      -3.7225      2.00000
    102      -3.4592      2.00000
    103      -3.2676      2.00000
    104      -2.3816      0.00000
    105      -2.2242      0.00000
    106      -0.9258      0.00000
    107      -0.8791      0.00000
    108      -0.8656      0.00000
    109      -0.5361      0.00000
    110      -0.2610      0.00000
    111      -0.2107      0.00000
    112       0.2534      0.00000
    113       0.2607      0.00000
    114       0.2628      0.00000
    115       0.6024      0.00000
    116       0.7965      0.00000
    117       0.9512      0.00000
    118       0.9754      0.00000
    119       1.0572      0.00000
    120       1.7231      0.00000
    121       1.7507      0.00000
    122       1.7695      0.00000
    123       1.8160      0.00000
    124       2.1145      0.00000
    125       2.1268      0.00000
    126       2.1310      0.00000
    127       2.2455      0.00000
    128       2.2466      0.00000
    129       2.3582      0.00000
    130       3.0006      0.00000
    131       3.0133      0.00000
    132       3.0382      0.00000


--------------------------------------------------------------------------------------------------------


 soft charge-density along one line, spin component           1
         0         1         2         3         4         5         6         7         8         9
 total charge-density along one line
 
 pseudopotential strength for first ion, spin component:           1
 10.222  13.593   0.000  -0.000   0.000  -0.000   0.000  -0.000
 13.593  18.076   0.000  -0.000   0.000  -0.000   0.000  -0.000
  0.000   0.000  -4.352  -0.000  -0.000   8.512   0.000   0.000
 -0.000  -0.000  -0.000  -4.344  -0.000   0.000   8.502   0.000
  0.000   0.000  -0.000  -0.000  -4.352   0.000   0.000   8.512
 -0.000  -0.000   8.512   0.000   0.000 -18.786  -0.000  -0.000
  0.000   0.000   0.000   8.502   0.000  -0.000 -18.775  -0.000
 -0.000  -0.000   0.000   0.000   8.512  -0.000  -0.000 -18.786
 total augmentation occupancy for first ion, spin component:           1
  8.358  -3.741   0.001   0.000   0.002   0.000   0.000   0.001
 -3.741   1.730  -0.002  -0.000  -0.003  -0.000  -0.000  -0.000
  0.001  -0.002   1.840  -0.000  -0.001   0.174   0.000   0.000
  0.000  -0.000  -0.000   1.223  -0.000   0.000   0.078   0.000
  0.002  -0.003  -0.001  -0.000   1.839   0.000   0.000   0.174
  0.000  -0.000   0.174   0.000   0.000   0.018   0.000   0.000
  0.000  -0.000   0.000   0.078   0.000   0.000   0.005   0.000
  0.001  -0.000   0.000   0.000   0.174   0.000   0.000   0.018


------------------------ aborting loop because EDIFF is reached ----------------------------------------


    CHARGE:  cpu time    0.4115: real time    0.4119
    FORLOC:  cpu time    0.0268: real time    0.0268
    FORNL :  cpu time    1.9835: real time    1.9891
    STRESS:  cpu time    3.2829: real time    3.2851
    FORCOR:  cpu time    0.1209: real time    0.1209
    FORHAR:  cpu time    0.0486: real time    0.0486
    MIXING:  cpu time    0.0036: real time    0.0036
    OFIELD:  cpu time    0.0001: real time    0.0001

  FORCE on cell =-STRESS in cart. coord.  units (eV):
  Direction    XX          YY          ZZ          XY          YZ          ZX
  --------------------------------------------------------------------------------------
  Alpha Z    82.54348    82.54348    82.54348
  Ewald   41240.07798 41240.06340-47956.40112    -0.54729    -0.00292    -1.03008
  Hartree 40522.50307 40522.50331-40004.06715    -0.09864     0.00012    -0.16202
  E(xc)    -777.23468  -777.23483  -804.31741    -0.00238    -0.00002    -0.00117
  Local  -84000.24558-84000.23898 85348.50344     0.45188     0.00144     0.92202
  n-local  -203.98750  -203.98779  -194.94473    -0.03244    -0.00050     0.03785
  augment   -12.35303   -12.35221   -14.19099     0.01548     0.00016     0.01572
  Kinetic  3164.47728  3164.48360  3597.48335     0.33609     0.00508    -0.17995
  Fock        0.00000     0.00000     0.00000     0.00000     0.00000     0.00000
  -------------------------------------------------------------------------------------
  Total      15.78102    15.77998    54.60887     0.12269     0.00337    -0.39762
  in kB       9.64883     9.64820    33.38896     0.07501     0.00206    -0.24312
  external pressure =       17.56 kB  Pullay stress =        0.00 kB


 VOLUME and BASIS-vectors are now :
 -----------------------------------------------------------------------------
  energy-cutoff  :      400.00
  volume of cell :     2620.42
      direct lattice vectors                 reciprocal lattice vectors
    12.300000191  0.000000000  0.000000000     0.081300812 -0.046939053  0.000000000
     6.150000804 10.652112223  0.000000000     0.000000000  0.093878095  0.000000000
     0.000000000  0.000000000 20.000000000     0.000000000  0.000000000  0.050000000

  length of vectors
    12.300000191 12.300000191 20.000000000     0.093878095  0.093878095  0.050000000


 FORCES acting on ions
    electron-ion (+dipol)            ewald-force                    non-local-force                 convergence-correction
 -----------------------------------------------------------------------------------------------
   -.147E+01 -.862E+00 0.277E+01   0.134E+01 0.787E+00 -.276E+01   0.824E-01 0.499E-01 0.394E-03   0.228E-03 0.368E-03 0.687E-03
   0.149E+01 -.846E+00 0.277E+01   -.135E+01 0.770E+00 -.276E+01   -.849E-01 0.465E-01 -.155E-03   -.111E-03 0.374E-04 0.454E-03
   0.370E+01 0.645E+01 0.378E+01   -.375E+01 -.652E+01 -.374E+01   -.111E+00 0.770E-01 -.718E-01   0.297E-03 -.972E-04 0.778E-03
   -.111E-01 0.129E+02 0.476E+01   0.147E-01 -.131E+02 -.491E+01   0.159E-02 0.146E-01 0.114E+00   -.563E-03 0.176E-04 0.938E-03
   -.370E+01 0.641E+01 0.378E+01   0.375E+01 -.648E+01 -.373E+01   0.113E+00 0.793E-01 -.728E-01   0.169E-04 0.352E-03 0.966E-03
   0.212E-01 0.171E+01 0.277E+01   -.209E-01 -.156E+01 -.276E+01   -.422E-02 -.964E-01 0.987E-04   -.259E-03 -.490E-03 0.589E-03
   0.117E+02 0.677E+01 0.486E+01   -.114E+02 -.658E+01 -.492E+01   0.107E+00 0.613E-01 0.531E-01   0.280E-04 0.244E-03 0.787E-03
   0.209E+02 0.365E+02 0.186E+02   -.215E+02 -.374E+02 -.190E+02   0.651E+00 0.664E+00 0.550E+00   -.887E-03 -.231E-03 0.200E-02
   -.210E+02 0.363E+02 0.185E+02   0.215E+02 -.371E+02 -.189E+02   -.646E+00 0.669E+00 0.576E+00   0.852E-04 0.541E-03 0.150E-02
   -.117E+02 0.672E+01 0.484E+01   0.113E+02 -.653E+01 -.490E+01   -.111E+00 0.645E-01 0.524E-01   0.252E-03 0.257E-03 0.902E-03
   0.746E+01 -.162E-01 0.379E+01   -.754E+01 -.113E-03 -.374E+01   0.122E-01 -.135E+00 -.712E-01   0.466E-03 0.499E-04 0.939E-03
   0.421E+02 -.833E-01 0.186E+02   -.432E+02 -.113E-03 -.190E+02   0.907E+00 0.232E+00 0.552E+00   -.101E-02 -.365E-03 0.116E-02
   -.146E+01 -.147E-02 0.294E+03   0.185E+01 -.113E-03 -.352E+03   -.595E-01 -.270E-03 0.713E+01   0.134E-02 0.460E-04 0.435E-02
   -.419E+02 -.194E-01 0.184E+02   0.429E+02 -.113E-03 -.188E+02   -.895E+00 0.226E+00 0.573E+00   -.130E-02 0.595E-03 0.124E-02
   -.738E+01 -.701E-02 0.378E+01   0.746E+01 -.113E-03 -.373E+01   -.117E-01 -.137E+00 -.732E-01   -.363E-03 0.247E-03 0.992E-03
   0.112E+02 -.646E+01 0.478E+01   -.114E+02 0.658E+01 -.492E+01   0.119E-01 -.594E-02 0.112E+00   -.585E-03 0.718E-04 0.680E-03
   0.210E+02 -.364E+02 0.186E+02   -.215E+02 0.374E+02 -.190E+02   0.256E+00 -.901E+00 0.566E+00   0.296E-03 0.793E-03 0.146E-02
   -.211E+02 -.363E+02 0.185E+02   0.215E+02 0.371E+02 -.189E+02   -.249E+00 -.890E+00 0.560E+00   0.230E-03 -.508E-03 0.169E-02
   -.111E+02 -.642E+01 0.475E+01   0.113E+02 0.653E+01 -.490E+01   -.134E-01 -.875E-02 0.115E+00   -.205E-03 -.919E-04 0.933E-03
   0.181E-01 -.148E+01 0.279E+01   -.209E-01 0.156E+01 -.276E+01   -.455E-02 -.866E-01 -.149E-01   0.342E-03 0.249E-03 0.663E-03
   0.372E+01 -.644E+01 0.378E+01   -.375E+01 0.652E+01 -.374E+01   0.124E+00 0.570E-01 -.718E-01   0.303E-03 -.190E-03 0.894E-03
   -.174E-01 -.135E+02 0.485E+01   0.147E-01 0.131E+02 -.491E+01   0.640E-03 -.126E+00 0.528E-01   -.823E-04 -.391E-04 0.901E-03
   -.372E+01 -.640E+01 0.378E+01   0.375E+01 0.647E+01 -.373E+01   -.123E+00 0.581E-01 -.728E-01   -.911E-04 0.329E-05 0.699E-03
   -.128E+01 0.749E+00 0.279E+01   0.134E+01 -.787E+00 -.276E+01   -.755E-01 0.409E-01 -.149E-01   0.117E-03 0.824E-04 0.684E-03
   0.129E+01 0.736E+00 0.280E+01   -.135E+01 -.770E+00 -.276E+01   0.747E-01 0.457E-01 -.150E-01   0.180E-03 -.260E-03 0.803E-03
   0.787E-02 -.469E-03 0.248E+01   -.105E-01 0.962E-04 -.248E+01   -.813E-03 0.832E-04 -.101E-01   -.384E-03 0.359E-03 0.439E-03
   0.533E+01 0.410E+01 0.339E+01   -.516E+01 -.432E+01 -.335E+01   -.705E-01 0.270E-02 -.240E-01   0.183E-03 0.130E-03 0.554E-03
   0.607E+01 0.172E+02 0.684E+01   -.581E+01 -.171E+02 -.646E+01   -.634E-01 0.170E+00 -.125E+00   0.389E-03 0.440E-04 0.132E-02
   -.610E+01 0.171E+02 0.683E+01   0.584E+01 -.171E+02 -.645E+01   0.646E-01 0.165E+00 -.121E+00   -.436E-03 0.397E-03 0.134E-02
   -.530E+01 0.406E+01 0.338E+01   0.514E+01 -.428E+01 -.335E+01   0.691E-01 0.468E-02 -.233E-01   0.192E-03 0.601E-03 0.873E-03
   0.622E+01 0.257E+01 0.339E+01   -.633E+01 -.232E+01 -.335E+01   -.330E-01 -.614E-01 -.236E-01   0.410E-03 -.344E-03 0.713E-03
   0.284E+02 0.165E+02 0.126E+02   -.287E+02 -.166E+02 -.131E+02   -.152E+00 -.830E-01 0.151E+00   0.466E-03 -.566E-03 0.142E-02
   -.340E+00 0.885E+02 0.585E+02   0.343E+00 -.930E+02 -.663E+02   -.877E-03 -.627E+00 0.336E+01   0.838E-03 0.131E-02 0.140E-02
   -.283E+02 0.163E+02 0.125E+02   0.286E+02 -.165E+02 -.130E+02   0.157E+00 -.949E-01 0.146E+00   -.302E-03 0.748E-04 0.140E-02
   -.615E+01 0.256E+01 0.338E+01   0.627E+01 -.230E+01 -.334E+01   0.306E-01 -.632E-01 -.236E-01   -.705E-03 -.690E-03 0.849E-03
   0.180E+02 -.333E+01 0.686E+01   -.178E+02 0.351E+01 -.647E+01   0.120E+00 -.144E+00 -.128E+00   0.210E-03 0.262E-04 0.102E-02
   0.767E+02 -.445E+02 0.588E+02   -.807E+02 0.468E+02 -.667E+02   -.429E+00 0.247E+00 0.350E+01   0.164E-02 -.109E-02 0.196E-02
   -.765E+02 -.440E+02 0.582E+02   0.804E+02 0.462E+02 -.659E+02   0.652E+00 0.377E+00 0.323E+01   -.321E-03 -.141E-02 0.130E-02
   -.179E+02 -.330E+01 0.681E+01   0.177E+02 0.348E+01 -.643E+01   -.106E+00 -.134E+00 -.118E+00   -.396E-03 0.298E-03 0.117E-02
   0.278E-01 -.608E+00 0.291E+01   -.285E-01 0.846E+00 -.288E+01   0.435E-03 -.154E+00 -.524E-01   -.111E-03 0.522E-03 0.692E-03
   0.118E+02 -.139E+02 0.685E+01   -.119E+02 0.136E+02 -.647E+01   0.183E+00 -.304E-01 -.127E+00   -.219E-03 -.379E-04 0.132E-02
   -.847E-01 -.328E+02 0.125E+02   0.608E-01 0.331E+02 -.131E+02   -.814E-02 0.178E+00 0.149E+00   0.379E-03 -.323E-04 0.141E-02
   -.118E+02 -.138E+02 0.682E+01   0.119E+02 0.135E+02 -.644E+01   -.170E+00 -.265E-01 -.119E+00   -.128E-03 -.447E-03 0.127E-02
   -.382E+01 -.221E+01 0.280E+01   0.377E+01 0.218E+01 -.284E+01   -.220E-01 -.125E-01 0.127E-01   0.192E-04 0.184E-03 0.769E-03
   0.388E+01 -.224E+01 0.280E+01   -.380E+01 0.220E+01 -.284E+01   0.208E-01 -.122E-01 0.145E-01   0.132E-03 -.341E-03 0.556E-03
   0.872E+00 -.665E+01 0.338E+01   -.115E+01 0.662E+01 -.335E+01   0.372E-01 0.580E-01 -.233E-01   0.392E-03 -.360E-03 0.774E-03
   -.878E+00 -.663E+01 0.338E+01   0.115E+01 0.660E+01 -.335E+01   -.390E-01 0.591E-01 -.239E-01   0.879E-04 -.587E-03 0.694E-03
   -.527E+00 0.320E+00 0.291E+01   0.730E+00 -.438E+00 -.288E+01   -.133E+00 0.769E-01 -.513E-01   0.194E-03 -.229E-03 0.550E-03
   0.425E-02 0.444E+01 0.280E+01   -.296E-03 -.437E+01 -.284E+01   -.228E-03 0.246E-01 0.135E-01   -.523E-03 0.148E-03 0.660E-03
   0.527E+00 0.288E+00 0.291E+01   -.735E+00 -.408E+00 -.288E+01   0.134E+00 0.773E-01 -.534E-01   -.604E-03 -.530E-03 0.803E-03
   0.726E+00 -.150E-02 -.723E+03   -.104E+01 -.295E-02 0.850E+03   -.861E-01 0.726E-02 -.646E+02   -.206E-02 0.687E-03 -.335E-02
 -----------------------------------------------------------------------------------------------
   -.106E+00 -.251E-02 0.444E+02   0.497E-13 0.102E-14 -.227E-12   0.109E+00 0.292E-02 -.445E+02   -.194E-02 -.200E-03 0.496E-01
 
 
 POSITION                                       TOTAL-FORCE (eV/Angst)
 -----------------------------------------------------------------------------------
      0.00000      0.00000      8.35995        -0.046763     -0.024815      0.009703
      2.46000      0.00000      8.35995         0.046769     -0.029536      0.009479
      4.92000      0.00000      8.35995        -0.161616      0.013928     -0.026662
      7.38000      0.00000      8.35995         0.004593     -0.210562     -0.027895
      9.84000      0.00000      8.35995         0.160905      0.015575     -0.026517
      1.23000      2.13042      8.35995        -0.004194      0.054180      0.009567
      3.69000      2.13042      8.35995         0.425175      0.246759      0.000119
      6.15000      2.13042      8.35995         0.092575     -0.205989      0.168393
      8.61000      2.13042      8.35995        -0.086617     -0.196963      0.174969
     11.07000      2.13042      8.35995        -0.435742      0.250402     -0.000448
      2.46000      4.26084      8.35995        -0.068528     -0.150912     -0.027208
      4.92000      4.26084      8.35995        -0.160192      0.147999      0.171606
      7.38000      4.26084      8.35995         0.330776     -0.001810    -50.885786
      9.84000      4.26084      8.35995         0.100855      0.206683      0.171881
     12.30000      4.26084      8.35995         0.067000     -0.143829     -0.026015
      3.69000      6.39127      8.35995        -0.192723      0.113953     -0.027668
      6.15000      6.39127      8.35995        -0.202946      0.064365      0.174985
      8.61000      6.39127      8.35995         0.234476     -0.017033      0.168797
     11.07000      6.39127      8.35995         0.172408      0.096835     -0.028028
     13.53000      6.39127      8.35995        -0.007019     -0.014027      0.018111
      4.92000      8.52169      8.35995         0.096817      0.134099     -0.027094
      7.38000      8.52169      8.35995        -0.002082     -0.496588     -0.000173
      9.84000      8.52169      8.35995        -0.090189      0.130661     -0.026061
     12.30000      8.52169      8.35995        -0.012686      0.003159      0.018040
     14.76000      8.52169      8.35995         0.011817      0.010790      0.018176
      1.23000      0.71014      8.36012        -0.003866      0.000065     -0.006072
      3.69000      0.71014      8.36012         0.097523     -0.215696      0.010426
      6.15000      0.71014      8.36012         0.193537      0.258810      0.259151
      8.61000      0.71014      8.36012        -0.195954      0.246712      0.261494
     11.07000      0.71014      8.36012        -0.096472     -0.221208      0.010011
      2.46000      2.84056      8.36012        -0.137073      0.193897      0.010033
      4.92000      2.84056      8.36012        -0.450943     -0.241147     -0.359608
      7.38000      2.84056      8.36012         0.003413     -5.180629     -4.424549
      9.84000      2.84056      8.36012         0.443167     -0.273603     -0.357054
     12.30000      2.84056      8.36012         0.144631      0.192651      0.010346
      3.69000      4.97099      8.36012         0.328244      0.036027      0.258403
      6.15000      4.97099      8.36012        -4.430603      2.560137     -4.382878
      8.61000      4.97099      8.36012         4.538720      2.618957     -4.461281
     11.07000      4.97099      8.36012        -0.305130      0.048450      0.262117
     13.53000      4.97099      8.36012        -0.000385      0.084008     -0.022403
      4.92000      7.10141      8.36012         0.126642     -0.300071      0.259510
      7.38000      7.10141      8.36012        -0.031623      0.515677     -0.358373
      9.84000      7.10141      8.36012        -0.116027     -0.290191      0.260940
     12.30000      7.10141      8.36012        -0.071876     -0.043425     -0.026623
     14.76000      7.10141      8.36012         0.094699     -0.052883     -0.026584
      6.15000      9.23183      8.36012        -0.238304      0.023530      0.009870
      8.61000      9.23183      8.36012         0.236744      0.026964      0.010552
     11.07000      9.23183      8.36012         0.070163     -0.040816     -0.022759
     13.53000      9.23183      8.36012         0.003199      0.095936     -0.026630
     15.99000      9.23183      8.36012        -0.074904     -0.042969     -0.022048
      7.37476      4.26084      9.35160        -0.400390      0.003492     62.889735
 -----------------------------------------------------------------------------------
    total drift:                                0.000427      0.000208     -0.000567


--------------------------------------------------------------------------------------------------------



  FREE ENERGIE OF THE ION-ELECTRON SYSTEM (eV)
  ---------------------------------------------------
  free  energy   TOTEN  =      -453.81832822 eV

  energy  without entropy=     -453.81814352  energy(sigma->0) =     -453.81823587
 


--------------------------------------------------------------------------------------------------------


    POTLOK:  cpu time    0.1748: real time    0.1750


--------------------------------------------------------------------------------------------------------


 stress matrix after NEB project (eV)
     15.78102      0.12269     -0.39762
      0.12269     15.77998      0.00337
     -0.39762      0.00337     54.60887
  FORCES: max atom, RMS    62.891010   11.451559
  FORCE total and by dimension   81.780486   62.889735
  Stress total and by dimension   58.995961   54.608869
     LOOP+:  cpu time   42.1643: real time   42.2240
    4ORBIT:  cpu time    0.0000: real time    0.0000

 total amount of memory used by VASP MPI-rank0    90113. kBytes
=======================================================================

   base      :      30000. kBytes
   nonl-proj :       8674. kBytes
   fftplans  :      26248. kBytes
   grid      :      14579. kBytes
   one-center:         21. kBytes
   wavefun   :      10591. kBytes
 
  
  
 General timing and accounting informations for this job:
 ========================================================
  
                  Total CPU time used (sec):       49.762
                            User time (sec):       46.527
                          System time (sec):        3.236
                         Elapsed time (sec):       49.884
  
                   Maximum memory used (kb):      366000.
                   Average memory used (kb):           0.
  
                          Minor page faults:       106463
                          Major page faults:            0
                 Voluntary context switches:         1221
