  51  51   0   0
  0.5138078E+02  0.1230000E-08  0.1230000E-08  0.2000000E-08  0.5000000E-15
  1.000000000000000E-004
  CAR 
                                         
      5.97378292    -33.53441281  301     -3.01691858      1.00000000
    -33.534  0.0000E+00  0.0000E+00
    -33.403  0.0000E+00  0.0000E+00
    -33.271  0.0000E+00  0.0000E+00
    -33.139  0.0000E+00  0.0000E+00
    -33.008  0.0000E+00  0.0000E+00
    -32.876  0.0000E+00  0.0000E+00
    -32.744  0.0000E+00  0.0000E+00
    -32.613  0.0000E+00  0.0000E+00
    -32.481  0.0000E+00  0.0000E+00
    -32.349  0.0000E+00  0.0000E+00
    -32.217  0.0000E+00  0.0000E+00
    -32.086  0.0000E+00  0.0000E+00
    -31.954  0.8230E-08  0.1084E-08
    -31.822  0.1345E+00  0.1771E-01
    -31.691  0.1372E+02  0.1824E+01
    -31.559  0.1336E+01  0.2000E+01
    -31.427  0.2896E-05  0.2000E+01
    -31.296  0.0000E+00  0.2000E+01
    -31.164  0.0000E+00  0.2000E+01
    -31.032  0.0000E+00  0.2000E+01
    -30.901  0.0000E+00  0.2000E+01
    -30.769  0.0000E+00  0.2000E+01
    -30.637  0.0000E+00  0.2000E+01
    -30.505  0.0000E+00  0.2000E+01
    -30.374  0.0000E+00  0.2000E+01
    -30.242  0.0000E+00  0.2000E+01
    -30.110  0.0000E+00  0.2000E+01
    -29.979  0.0000E+00  0.2000E+01
    -29.847  0.0000E+00  0.2000E+01
    -29.715  0.0000E+00  0.2000E+01
    -29.584  0.0000E+00  0.2000E+01
    -29.452  0.0000E+00  0.2000E+01
    -29.320  0.0000E+00  0.2000E+01
    -29.189  0.0000E+00  0.2000E+01
    -29.057  0.0000E+00  0.2000E+01
    -28.925  0.0000E+00  0.2000E+01
    -28.793  0.0000E+00  0.2000E+01
    -28.662  0.0000E+00  0.2000E+01
    -28.530  0.0000E+00  0.2000E+01
    -28.398  0.0000E+00  0.2000E+01
    -28.267  0.0000E+00  0.2000E+01
    -28.135  0.0000E+00  0.2000E+01
    -28.003  0.0000E+00  0.2000E+01
    -27.872  0.0000E+00  0.2000E+01
    -27.740  0.0000E+00  0.2000E+01
    -27.608  0.0000E+00  0.2000E+01
    -27.476  0.0000E+00  0.2000E+01
    -27.345  0.0000E+00  0.2000E+01
    -27.213  0.0000E+00  0.2000E+01
    -27.081  0.0000E+00  0.2000E+01
    -26.950  0.0000E+00  0.2000E+01
    -26.818  0.0000E+00  0.2000E+01
    -26.686  0.0000E+00  0.2000E+01
    -26.555  0.0000E+00  0.2000E+01
    -26.423  0.0000E+00  0.2000E+01
    -26.291  0.0000E+00  0.2000E+01
    -26.160  0.0000E+00  0.2000E+01
    -26.028  0.0000E+00  0.2000E+01
    -25.896  0.0000E+00  0.2000E+01
    -25.764  0.0000E+00  0.2000E+01
    -25.633  0.0000E+00  0.2000E+01
    -25.501  0.0000E+00  0.2000E+01
    -25.369  0.0000E+00  0.2000E+01
    -25.238  0.0000E+00  0.2000E+01
    -25.106  0.0000E+00  0.2000E+01
    -24.974  0.0000E+00  0.2000E+01
    -24.843  0.0000E+00  0.2000E+01
    -24.711  0.0000E+00  0.2000E+01
    -24.579  0.0000E+00  0.2000E+01
    -24.448  0.0000E+00  0.2000E+01
    -24.316  0.0000E+00  0.2000E+01
    -24.184  0.0000E+00  0.2000E+01
    -24.052  0.0000E+00  0.2000E+01
    -23.921  0.0000E+00  0.2000E+01
    -23.789  0.0000E+00  0.2000E+01
    -23.657  0.0000E+00  0.2000E+01
    -23.526  0.0000E+00  0.2000E+01
    -23.394  0.0000E+00  0.2000E+01
    -23.262  0.0000E+00  0.2000E+01
    -23.131  0.0000E+00  0.2000E+01
    -22.999  0.0000E+00  0.2000E+01
    -22.867  0.0000E+00  0.2000E+01
    -22.736  0.0000E+00  0.2000E+01
    -22.604  0.0000E+00  0.2000E+01
    -22.472  0.1000E-07  0.2000E+01
    -22.340  0.4062E-01  0.2005E+01
    -22.209  0.4435E+01  0.2589E+01
    -22.077  0.9175E+01  0.3798E+01
    -21.945  0.4941E+01  0.4448E+01
    -21.814  0.1075E+02  0.5864E+01
    -21.682  0.5541E+01  0.6594E+01
    -21.550  0.7640E+01  0.7600E+01
    -21.419  0.1282E+02  0.9289E+01
    -21.287  0.5396E+01  0.9999E+01
    -21.155  0.3848E+01  0.1051E+02
    -21.023  0.9186E+01  0.1172E+02
    -20.892  0.1080E+02  0.1314E+02
    -20.760  0.9968E+01  0.1445E+02
    -20.628  0.8358E+01  0.1555E+02
    -20.497  0.2066E+00  0.1558E+02
    -20.365  0.1318E+02  0.1731E+02
    -20.233  0.3932E+01  0.1783E+02
    -20.102  0.1856E+02  0.2028E+02
    -19.970  0.1290E+01  0.2045E+02
    -19.838  0.3637E+01  0.2093E+02
    -19.707  0.1402E+02  0.2277E+02
    -19.575  0.8398E+01  0.2388E+02
    -19.443  0.5985E+01  0.2467E+02
    -19.311  0.6869E+01  0.2557E+02
    -19.180  0.1405E+02  0.2742E+02
    -19.048  0.7591E+01  0.2842E+02
    -18.916  0.4730E+01  0.2904E+02
    -18.785  0.5177E+01  0.2973E+02
    -18.653  0.5322E+01  0.3043E+02
    -18.521  0.1380E+02  0.3224E+02
    -18.390  0.1138E+02  0.3374E+02
    -18.258  0.8633E+01  0.3488E+02
    -18.126  0.4944E+01  0.3553E+02
    -17.995  0.1521E+02  0.3753E+02
    -17.863  0.4822E+01  0.3817E+02
    -17.731  0.3716E+01  0.3866E+02
    -17.599  0.5923E+01  0.3944E+02
    -17.468  0.1577E+02  0.4151E+02
    -17.336  0.4060E+01  0.4205E+02
    -17.204  0.2141E+02  0.4487E+02
    -17.073  0.6824E+01  0.4577E+02
    -16.941  0.3474E+01  0.4622E+02
    -16.809  0.8925E+01  0.4740E+02
    -16.678  0.4009E+01  0.4793E+02
    -16.546  0.8847E+01  0.4909E+02
    -16.414  0.8945E+01  0.5027E+02
    -16.283  0.3101E+01  0.5068E+02
    -16.151  0.9269E+01  0.5190E+02
    -16.019  0.5971E+01  0.5269E+02
    -15.887  0.1295E+02  0.5439E+02
    -15.756  0.1194E+02  0.5596E+02
    -15.624  0.2160E+01  0.5625E+02
    -15.492  0.4258E+01  0.5681E+02
    -15.361  0.2668E+01  0.5716E+02
    -15.229  0.1019E+02  0.5850E+02
    -15.097  0.2212E+02  0.6142E+02
    -14.966  0.4664E+01  0.6203E+02
    -14.834  0.1149E+02  0.6354E+02
    -14.702  0.1041E+02  0.6491E+02
    -14.570  0.6399E+01  0.6576E+02
    -14.439  0.1590E+02  0.6785E+02
    -14.307  0.4501E+01  0.6844E+02
    -14.175  0.1043E+01  0.6858E+02
    -14.044  0.4077E+01  0.6912E+02
    -13.912  0.1020E+02  0.7046E+02
    -13.780  0.1702E+02  0.7270E+02
    -13.649  0.1747E+02  0.7500E+02
    -13.517  0.1657E+01  0.7522E+02
    -13.385  0.2528E+01  0.7556E+02
    -13.254  0.5142E+00  0.7562E+02
    -13.122  0.1113E+02  0.7709E+02
    -12.990  0.1406E+02  0.7894E+02
    -12.858  0.2035E+02  0.8162E+02
    -12.727  0.1203E+01  0.8178E+02
    -12.595  0.4764E+01  0.8241E+02
    -12.463  0.1772E+02  0.8474E+02
    -12.332  0.1078E+02  0.8616E+02
    -12.200  0.3622E+01  0.8664E+02
    -12.068  0.3220E+01  0.8706E+02
    -11.937  0.1212E+02  0.8866E+02
    -11.805  0.3647E+01  0.8914E+02
    -11.673  0.1629E+02  0.9128E+02
    -11.542  0.1740E+02  0.9357E+02
    -11.410  0.1361E+02  0.9536E+02
    -11.278  0.8371E+01  0.9647E+02
    -11.146  0.5513E+01  0.9719E+02
    -11.015  0.7850E+01  0.9823E+02
    -10.883  0.1308E+02  0.9995E+02
    -10.751  0.1685E+02  0.1022E+03
    -10.620  0.2227E+01  0.1025E+03
    -10.488  0.2052E+02  0.1052E+03
    -10.356  0.3709E+01  0.1057E+03
    -10.225  0.2455E+02  0.1089E+03
    -10.093  0.2540E+02  0.1122E+03
     -9.961  0.1843E+02  0.1147E+03
     -9.829  0.1511E+02  0.1166E+03
     -9.698  0.1724E+02  0.1189E+03
     -9.566  0.2806E+02  0.1226E+03
     -9.434  0.2031E+02  0.1253E+03
     -9.303  0.2744E+02  0.1289E+03
     -9.171  0.2335E+02  0.1320E+03
     -9.039  0.2885E+02  0.1358E+03
     -8.908  0.2005E+02  0.1384E+03
     -8.776  0.1741E+02  0.1407E+03
     -8.644  0.2363E+02  0.1438E+03
     -8.513  0.1721E+02  0.1461E+03
     -8.381  0.1669E+02  0.1483E+03
     -8.249  0.1513E+02  0.1503E+03
     -8.117  0.1592E+02  0.1524E+03
     -7.986  0.2906E+02  0.1562E+03
     -7.854  0.1584E+02  0.1583E+03
     -7.722  0.1624E+02  0.1604E+03
     -7.591  0.8153E+01  0.1615E+03
     -7.459  0.2121E+01  0.1618E+03
     -7.327  0.1803E+02  0.1642E+03
     -7.196  0.3209E+02  0.1684E+03
     -7.064  0.1553E+02  0.1704E+03
     -6.932  0.4698E+01  0.1710E+03
     -6.801  0.1903E+02  0.1736E+03
     -6.669  0.1287E+02  0.1752E+03
     -6.537  0.1588E+02  0.1773E+03
     -6.405  0.6924E+01  0.1783E+03
     -6.274  0.1267E+02  0.1799E+03
     -6.142  0.1531E+02  0.1819E+03
     -6.010  0.1369E+02  0.1837E+03
     -5.879  0.2023E+02  0.1864E+03
     -5.747  0.7858E+01  0.1874E+03
     -5.615  0.1360E+02  0.1892E+03
     -5.484  0.3299E+01  0.1897E+03
     -5.352  0.8018E+01  0.1907E+03
     -5.220  0.8456E+01  0.1918E+03
     -5.089  0.1198E+02  0.1934E+03
     -4.957  0.1840E+02  0.1958E+03
     -4.825  0.1487E+02  0.1978E+03
     -4.693  0.3186E+01  0.1982E+03
     -4.562  0.8168E-01  0.1982E+03
     -4.430  0.4262E-04  0.1982E+03
     -4.298  0.3126E+01  0.1986E+03
     -4.167  0.1707E+02  0.2009E+03
     -4.035  0.5110E+01  0.2016E+03
     -3.903  0.1023E-02  0.2016E+03
     -3.772  0.4390E+00  0.2016E+03
     -3.640  0.2920E+01  0.2020E+03
     -3.508  0.2559E+00  0.2020E+03
     -3.376  0.4377E+01  0.2026E+03
     -3.245  0.1233E+02  0.2042E+03
     -3.113  0.1086E+02  0.2057E+03
     -2.981  0.2620E+01  0.2060E+03
     -2.850  0.2593E+01  0.2063E+03
     -2.718  0.9091E+01  0.2075E+03
     -2.586  0.7387E-01  0.2076E+03
     -2.455  0.1003E+00  0.2076E+03
     -2.323  0.3174E+01  0.2080E+03
     -2.191  0.2930E+01  0.2084E+03
     -2.060  0.5456E+00  0.2084E+03
     -1.928  0.4130E-05  0.2084E+03
     -1.796  0.5689E-07  0.2084E+03
     -1.664  0.2318E+00  0.2085E+03
     -1.533  0.9568E+01  0.2097E+03
     -1.401  0.1252E+02  0.2114E+03
     -1.269  0.2993E+01  0.2118E+03
     -1.138  0.1249E-03  0.2118E+03
     -1.006  0.1134E+01  0.2119E+03
     -0.874  0.1087E+02  0.2134E+03
     -0.743  0.2308E+02  0.2164E+03
     -0.611  0.1844E+02  0.2188E+03
     -0.479  0.5333E+01  0.2195E+03
     -0.348  0.2281E+00  0.2196E+03
     -0.216  0.4631E+01  0.2202E+03
     -0.084  0.1134E+02  0.2217E+03
      0.048  0.1035E+02  0.2230E+03
      0.179  0.8265E+00  0.2231E+03
      0.311  0.1638E+02  0.2253E+03
      0.443  0.7472E+01  0.2263E+03
      0.574  0.3071E+01  0.2267E+03
      0.706  0.1139E+02  0.2282E+03
      0.838  0.1653E+02  0.2304E+03
      0.969  0.6374E+01  0.2312E+03
      1.101  0.1113E+02  0.2327E+03
      1.233  0.1478E+02  0.2346E+03
      1.364  0.8298E+01  0.2357E+03
      1.496  0.1510E+02  0.2377E+03
      1.628  0.2303E+02  0.2407E+03
      1.760  0.1552E+02  0.2428E+03
      1.891  0.2744E+02  0.2464E+03
      2.023  0.8331E+01  0.2475E+03
      2.155  0.1625E+02  0.2496E+03
      2.286  0.2610E+02  0.2531E+03
      2.418  0.2876E+02  0.2568E+03
      2.550  0.7223E+01  0.2578E+03
      2.681  0.6294E+01  0.2586E+03
      2.813  0.9154E+01  0.2598E+03
      2.945  0.5013E+01  0.2605E+03
      3.077  0.9206E+01  0.2617E+03
      3.208  0.2807E+01  0.2621E+03
      3.340  0.4511E+01  0.2627E+03
      3.472  0.2696E-01  0.2627E+03
      3.603  0.3378E+01  0.2631E+03
      3.735  0.3369E+01  0.2636E+03
      3.867  0.9549E-03  0.2636E+03
      3.998  0.6390E-06  0.2636E+03
      4.130  0.2963E+00  0.2636E+03
      4.262  0.3049E+01  0.2640E+03
      4.393  0.2999E-01  0.2640E+03
      4.525  0.1844E-08  0.2640E+03
      4.657  0.0000E+00  0.2640E+03
      4.789  0.0000E+00  0.2640E+03
      4.920  0.0000E+00  0.2640E+03
      5.052  0.0000E+00  0.2640E+03
      5.184  0.0000E+00  0.2640E+03
      5.315  0.0000E+00  0.2640E+03
      5.447  0.0000E+00  0.2640E+03
      5.579  0.0000E+00  0.2640E+03
      5.710  0.0000E+00  0.2640E+03
      5.842  0.0000E+00  0.2640E+03
      5.974  0.0000E+00  0.2640E+03
