<?xml version="1.0" encoding="ISO-8859-1"?>
<modeling>
 <generator>
  <i name="program" type="string">vasp </i>
  <i name="version" type="string">5.4.4.18Apr17-6-g9f103f2a35  </i>
  <i name="subversion" type="string">(build Aug 13 2022 23:40:43) complex            parallel </i>
  <i name="platform" type="string">LinuxIFC </i>
  <i name="date" type="string">2024 11 10 </i>
  <i name="time" type="string">03:43:18 </i>
 </generator>
 <incar>
  <i type="int" name="ISTART">     1</i>
  <i type="string" name="PREC">accurate</i>
  <i type="string" name="ALGO"> F          N:DAV,fine,slow</i>
  <i type="logical" name="ADDGRID"> T  </i>
  <i type="int" name="ISPIN">     1</i>
  <i type="int" name="ICHARG">     1</i>
  <i type="int" name="NELM">   300</i>
  <i type="int" name="IBRION">    -1</i>
  <i name="EDIFF">      0.00001000</i>
  <i name="EDIFFG">     -0.00100000</i>
  <i type="int" name="NSW">     1</i>
  <i type="int" name="ISIF">     2</i>
  <i name="ENCUT">    400.00000000</i>
  <i type="logical" name="LREAL"> F  </i>
  <i type="int" name="ISMEAR">     0</i>
  <i name="SIGMA">      0.05000000</i>
  <i type="logical" name="LWAVE"> F  </i>
  <i type="logical" name="LCHARG"> F  </i>
  <v type="int" name="KPOINT_BSE">    -1     0     0     0</v>
  <i type="int" name="NELM">   300</i>
 </incar>
 <structure name="primitive_cell" >
  <crystal>
   <varray name="basis" >
    <v>      12.30000019       0.00000000       0.00000000 </v>
    <v>       6.15000080      10.65211222       0.00000000 </v>
    <v>       0.00000000       0.00000000      20.00000000 </v>
   </varray>
   <i name="volume">   2620.41964732 </i>
   <varray name="rec_basis" >
    <v>       0.08130081      -0.04693905       0.00000000 </v>
    <v>       0.00000000       0.09387809       0.00000000 </v>
    <v>       0.00000000       0.00000000       0.05000000 </v>
   </varray>
  </crystal>
  <varray name="positions" >
   <v>       0.00000000       0.00000000       0.41799748 </v>
   <v>       0.06666667       0.06666660       0.41800609 </v>
   <v>      -0.13333333       0.06666660       0.41800609 </v>
   <v>       0.06666667      -0.13333340       0.41800609 </v>
   <v>      -0.20000000       0.20000000       0.41799748 </v>
   <v>       0.20000000      -0.20000000       0.41799748 </v>
   <v>       0.20000000       0.00000000       0.41799748 </v>
   <v>      -0.20000000       0.00000000       0.41799748 </v>
   <v>       0.00000000       0.20000000       0.41799748 </v>
   <v>       0.00000000      -0.20000000       0.41799748 </v>
   <v>      -0.13333333       0.26666660       0.41800609 </v>
   <v>       0.26666667      -0.13333340       0.41800609 </v>
   <v>      -0.13333333      -0.13333340       0.41800609 </v>
   <v>       0.06666667       0.26666660       0.41800609 </v>
   <v>      -0.33333333       0.26666660       0.41800609 </v>
   <v>       0.26666667       0.06666660       0.41800609 </v>
   <v>      -0.33333333       0.06666660       0.41800609 </v>
   <v>       0.26666667      -0.33333340       0.41800609 </v>
   <v>       0.06666667      -0.33333340       0.41800609 </v>
   <v>      -0.40000000       0.20000000       0.41799748 </v>
   <v>       0.40000000      -0.20000000       0.41799748 </v>
   <v>      -0.20000000       0.40000000       0.41799748 </v>
   <v>       0.20000000      -0.40000000       0.41799748 </v>
   <v>       0.20000000       0.20000000       0.41799748 </v>
   <v>      -0.20000000      -0.20000000       0.41799748 </v>
   <v>      -0.40000000       0.40000000       0.41799748 </v>
   <v>       0.40000000      -0.40000000       0.41799748 </v>
   <v>      -0.40000000       0.00000000       0.41799748 </v>
   <v>       0.00000000       0.40000000       0.41799748 </v>
   <v>       0.00000000      -0.40000000       0.41799748 </v>
   <v>       0.40081301       0.00000000       0.41799748 </v>
   <v>      -0.13333333       0.46666660       0.41800609 </v>
   <v>      -0.33333333       0.46666660       0.41800609 </v>
   <v>       0.46666667      -0.13333340       0.41800609 </v>
   <v>       0.46666667      -0.33333340       0.41800609 </v>
   <v>      -0.33333333      -0.13333340       0.41800609 </v>
   <v>      -0.13333333      -0.33333340       0.41800609 </v>
   <v>       0.26666667       0.26666660       0.41800609 </v>
   <v>       0.46666667       0.26666660       0.41800609 </v>
   <v>       0.26666667       0.46666660       0.41800609 </v>
   <v>       0.06666667       0.46666660       0.41800609 </v>
   <v>       0.46666667       0.46666660       0.41800609 </v>
   <v>       0.46666667       0.06666660       0.41800609 </v>
   <v>       0.40000000       0.40000000       0.41799748 </v>
   <v>      -0.40000000      -0.40000000       0.41799748 </v>
   <v>       0.40000000       0.20000000       0.41799748 </v>
   <v>      -0.40000000      -0.20000000       0.41799748 </v>
   <v>       0.20000000       0.40000000       0.41799748 </v>
   <v>      -0.20000000      -0.40000000       0.41799748 </v>
   <v>       0.40000000       0.40000000       0.46800609 </v>
   <v>      -0.33333333      -0.33333340       0.41800609 </v>
  </varray>
 </structure>
 <varray name="primitive_index" >
  <v type="int" >        1 </v>
  <v type="int" >       26 </v>
  <v type="int" >       30 </v>
  <v type="int" >       46 </v>
  <v type="int" >       10 </v>
  <v type="int" >       22 </v>
  <v type="int" >        2 </v>
  <v type="int" >        5 </v>
  <v type="int" >        6 </v>
  <v type="int" >       21 </v>
  <v type="int" >       35 </v>
  <v type="int" >       47 </v>
  <v type="int" >       50 </v>
  <v type="int" >       31 </v>
  <v type="int" >       34 </v>
  <v type="int" >       27 </v>
  <v type="int" >       29 </v>
  <v type="int" >       42 </v>
  <v type="int" >       41 </v>
  <v type="int" >        9 </v>
  <v type="int" >       23 </v>
  <v type="int" >       15 </v>
  <v type="int" >       17 </v>
  <v type="int" >        7 </v>
  <v type="int" >       25 </v>
  <v type="int" >       14 </v>
  <v type="int" >       18 </v>
  <v type="int" >        4 </v>
  <v type="int" >       11 </v>
  <v type="int" >       16 </v>
  <v type="int" >        3 </v>
  <v type="int" >       40 </v>
  <v type="int" >       39 </v>
  <v type="int" >       48 </v>
  <v type="int" >       43 </v>
  <v type="int" >       49 </v>
  <v type="int" >       45 </v>
  <v type="int" >       32 </v>
  <v type="int" >       33 </v>
  <v type="int" >       37 </v>
  <v type="int" >       36 </v>
  <v type="int" >       38 </v>
  <v type="int" >       28 </v>
  <v type="int" >       13 </v>
  <v type="int" >       19 </v>
  <v type="int" >        8 </v>
  <v type="int" >       24 </v>
  <v type="int" >       12 </v>
  <v type="int" >       20 </v>
  <v type="int" >       51 </v>
  <v type="int" >       44 </v>
 </varray>
 <kpoints>
  <generation param="Gamma">
   <v type="int" name="divisions">       3        3        1 </v>
   <v name="usershift">      0.00000000       0.00000000       0.00000000 </v>
   <v name="genvec1">      0.33333333      -0.00000000       0.00000000 </v>
   <v name="genvec2">      0.00000000       0.33333333       0.00000000 </v>
   <v name="genvec3">      0.00000000       0.00000000       1.00000000 </v>
   <v name="shift">      0.00000000       0.00000000       0.00000000 </v>
  </generation>
  <varray name="kpointlist" >
   <v>       0.00000000       0.00000000       0.00000000 </v>
   <v>       0.33333333       0.00000000       0.00000000 </v>
   <v>       0.00000000       0.33333333       0.00000000 </v>
   <v>       0.33333333       0.33333333       0.00000000 </v>
   <v>      -0.33333333       0.33333333       0.00000000 </v>
  </varray>
  <varray name="weights" >
   <v>       0.11111111 </v>
   <v>       0.22222222 </v>
   <v>       0.22222222 </v>
   <v>       0.22222222 </v>
   <v>       0.22222222 </v>
  </varray>
 </kpoints>
 <parameters>
  <separator name="general" >
   <i type="string" name="SYSTEM"></i>
   <i type="logical" name="LCOMPAT"> F  </i>
  </separator>
  <separator name="electronic" >
   <i type="string" name="PREC">accura</i>
   <i name="ENMAX">    400.00000000</i>
   <i name="ENAUG">    644.87300000</i>
   <i name="EDIFF">      0.00001000</i>
   <i type="int" name="IALGO">    68</i>
   <i type="int" name="IWAVPR">    10</i>
   <i type="int" name="NBANDS">   132</i>
   <i name="NELECT">    206.00000000</i>
   <i type="int" name="TURBO">     0</i>
   <i type="int" name="IRESTART">     0</i>
   <i type="int" name="NREBOOT">     0</i>
   <i type="int" name="NMIN">     0</i>
   <i name="EREF">      0.00000000</i>
   <separator name="electronic smearing" >
    <i type="int" name="ISMEAR">     0</i>
    <i name="SIGMA">      0.05000000</i>
    <i name="KSPACING">      0.50000000</i>
    <i type="logical" name="KGAMMA"> T  </i>
   </separator>
   <separator name="electronic projectors" >
    <i type="logical" name="LREAL"> F  </i>
    <v name="ROPT">      0.00000000      0.00000000</v>
    <i type="int" name="LMAXPAW">  -100</i>
    <i type="int" name="LMAXMIX">     2</i>
    <i type="logical" name="NLSPLINE"> F  </i>
   </separator>
   <separator name="electronic startup" >
    <i type="int" name="ISTART">     1</i>
    <i type="int" name="ICHARG">     1</i>
    <i type="int" name="INIWAV">     1</i>
   </separator>
   <separator name="electronic spin" >
    <i type="int" name="ISPIN">     1</i>
    <i type="logical" name="LNONCOLLINEAR"> F  </i>
    <v name="MAGMOM">      1.00000000      1.00000000      1.00000000      1.00000000      1.00000000      1.00000000      1.00000000      1.00000000      1.00000000      1.00000000      1.00000000      1.00000000      1.00000000      1.00000000      1.00000000      1.00000000      1.00000000      1.00000000      1.00000000      1.00000000
      1.00000000      1.00000000      1.00000000      1.00000000      1.00000000      1.00000000      1.00000000      1.00000000      1.00000000      1.00000000      1.00000000      1.00000000      1.00000000      1.00000000      1.00000000      1.00000000      1.00000000      1.00000000      1.00000000      1.00000000
      1.00000000      1.00000000      1.00000000      1.00000000      1.00000000      1.00000000      1.00000000      1.00000000      1.00000000      1.00000000      1.00000000</v>
    <i name="NUPDOWN">     -1.00000000</i>
    <i type="logical" name="LSORBIT"> F  </i>
    <v name="SAXIS">      0.00000000      0.00000000      1.00000000</v>
    <i type="logical" name="LSPIRAL"> F  </i>
    <v name="QSPIRAL">      0.00000000      0.00000000      0.00000000</v>
    <i type="logical" name="LZEROZ"> F  </i>
   </separator>
   <separator name="electronic exchange-correlation" >
    <i type="logical" name="LASPH"> F  </i>
    <i type="logical" name="LMETAGGA"> F  </i>
   </separator>
   <separator name="electronic convergence" >
    <i type="int" name="NELM">   300</i>
    <i type="int" name="NELMDL">     0</i>
    <i type="int" name="NELMIN">     2</i>
    <i name="ENINI">    400.00000000</i>
    <separator name="electronic convergence detail" >
     <i type="logical" name="LDIAG"> T  </i>
     <i type="logical" name="LSUBROT"> F  </i>
     <i name="WEIMIN">      0.00000000</i>
     <i name="EBREAK">      0.00000002</i>
     <i name="DEPER">      0.30000000</i>
     <i type="int" name="NRMM">     4</i>
     <i name="TIME">      0.40000000</i>
    </separator>
   </separator>
   <separator name="electronic mixer" >
    <i name="AMIX">      0.40000000</i>
    <i name="BMIX">      1.00000000</i>
    <i name="AMIN">      0.10000000</i>
    <i name="AMIX_MAG">      1.60000000</i>
    <i name="BMIX_MAG">      1.00000000</i>
    <separator name="electronic mixer details" >
     <i type="int" name="IMIX">     4</i>
     <i type="logical" name="MIXFIRST"> F  </i>
     <i type="int" name="MAXMIX">   -45</i>
     <i name="WC">    100.00000000</i>
     <i type="int" name="INIMIX">     1</i>
     <i type="int" name="MIXPRE">     1</i>
     <i type="int" name="MREMOVE">     5</i>
    </separator>
   </separator>
   <separator name="electronic dipolcorrection" >
    <i type="logical" name="LDIPOL"> F  </i>
    <i type="logical" name="LMONO"> F  </i>
    <i type="int" name="IDIPOL">     0</i>
    <i name="EPSILON">      1.00000000</i>
    <v name="DIPOL">   -100.00000000   -100.00000000   -100.00000000</v>
    <i name="EFIELD">      0.00000000</i>
   </separator>
  </separator>
  <separator name="grids" >
   <i type="int" name="NGX">    80</i>
   <i type="int" name="NGY">    80</i>
   <i type="int" name="NGZ">   140</i>
   <i type="int" name="NGXF">   160</i>
   <i type="int" name="NGYF">   160</i>
   <i type="int" name="NGZF">   280</i>
   <i type="logical" name="ADDGRID"> T  </i>
  </separator>
  <separator name="ionic" >
   <i type="int" name="NSW">     1</i>
   <i type="int" name="IBRION">    -1</i>
   <i type="int" name="MDALGO">     0</i>
   <i type="int" name="ISIF">     2</i>
   <i name="PSTRESS">      0.00000000</i>
   <i name="EDIFFG">     -0.00100000</i>
   <i type="int" name="NFREE">     0</i>
   <i name="POTIM">      0.50000000</i>
   <i name="SMASS">     -3.00000000</i>
   <i name="SCALEE">      1.00000000</i>
  </separator>
  <separator name="ionic md" >
   <i name="TEBEG">      0.00010000</i>
   <i name="TEEND">      0.00010000</i>
   <i type="int" name="NBLOCK">     1</i>
   <i type="int" name="KBLOCK">     1</i>
   <i type="int" name="NPACO">   256</i>
   <i name="APACO">     16.00000000</i>
  </separator>
  <separator name="symmetry" >
   <i type="int" name="ISYM">     2</i>
   <i name="SYMPREC">      0.00001000</i>
  </separator>
  <separator name="dos" >
   <i type="int" name="LORBIT">     0</i>
   <v name="RWIGS">     -1.00000000     -1.00000000</v>
   <i type="int" name="NEDOS">   301</i>
   <i name="EMIN">     10.00000000</i>
   <i name="EMAX">    -10.00000000</i>
   <i name="EFERMI">      0.00000000</i>
  </separator>
  <separator name="writing" >
   <i type="int" name="NWRITE">     2</i>
   <i type="logical" name="LWAVE"> F  </i>
   <i type="logical" name="LDOWNSAMPLE"> F  </i>
   <i type="logical" name="LCHARG"> F  </i>
   <i type="logical" name="LPARD"> F  </i>
   <i type="logical" name="LVTOT"> F  </i>
   <i type="logical" name="LVHAR"> F  </i>
   <i type="logical" name="LELF"> F  </i>
   <i type="logical" name="LOPTICS"> F  </i>
   <v name="STM">      0.00000000      0.00000000      0.00000000      0.00000000      0.00000000      0.00000000      0.00000000</v>
  </separator>
  <separator name="performance" >
   <i type="int" name="NPAR">     6</i>
   <i type="int" name="NSIM">     4</i>
   <i type="int" name="NBLK">    -1</i>
   <i type="logical" name="LPLANE"> T  </i>
   <i type="logical" name="LSCALAPACK"> T  </i>
   <i type="logical" name="LSCAAWARE"> F  </i>
   <i type="logical" name="LSCALU"> F  </i>
   <i type="logical" name="LASYNC"> F  </i>
   <i type="logical" name="LORBITALREAL"> F  </i>
  </separator>
  <separator name="miscellaneous" >
   <i type="int" name="IDIOT">     3</i>
   <i type="int" name="ISPECIAL">     0</i>
   <i type="logical" name="LMUSIC"> F  </i>
   <v name="POMASS">     12.01100000     16.00000000</v>
   <v name="DARWINR">      0.00000000      0.00000000</v>
   <v name="DARWINV">      1.00000000      1.00000000</v>
   <i type="logical" name="LCORR"> T  </i>
  </separator>
  <i type="logical" name="GGA_COMPAT"> T  </i>
  <i type="logical" name="LBERRY"> F  </i>
  <i type="int" name="ICORELEVEL">     0</i>
  <i type="logical" name="LDAU"> F  </i>
  <i type="int" name="I_CONSTRAINED_M">     0</i>
  <separator name="electronic exchange-correlation" >
   <i type="string" name="GGA">--</i>
   <i type="int" name="VOSKOWN">     0</i>
   <i type="logical" name="LHFCALC"> F  </i>
   <i type="string" name="PRECFOCK"></i>
   <i type="logical" name="LSYMGRAD"> F  </i>
   <i type="logical" name="LHFONE"> F  </i>
   <i type="logical" name="LRHFCALC"> F  </i>
   <i type="logical" name="LTHOMAS"> F  </i>
   <i type="logical" name="LMODELHF"> F  </i>
   <i name="ENCUT4O">     -1.00000000</i>
   <i type="int" name="EXXOEP">     0</i>
   <i type="int" name="FOURORBIT">     0</i>
   <i name="AEXX">      0.00000000</i>
   <i name="HFALPHA">      0.00000000</i>
   <i name="MCALPHA">      0.00000000</i>
   <i name="ALDAX">      1.00000000</i>
   <i name="AGGAX">      1.00000000</i>
   <i name="ALDAC">      1.00000000</i>
   <i name="AGGAC">      1.00000000</i>
   <i type="int" name="NKREDX">     1</i>
   <i type="int" name="NKREDY">     1</i>
   <i type="int" name="NKREDZ">     1</i>
   <i type="logical" name="SHIFTRED"> F  </i>
   <i type="logical" name="ODDONLY"> F  </i>
   <i type="logical" name="EVENONLY"> F  </i>
   <i type="int" name="LMAXFOCK">     0</i>
   <i type="int" name="NMAXFOCKAE">     0</i>
   <i type="logical" name="LFOCKAEDFT"> F  </i>
   <i name="HFSCREEN">      0.00000000</i>
   <i name="HFSCREENC">      0.00000000</i>
   <i type="int" name="NBANDSGWLOW">     0</i>
  </separator>
  <separator name="vdW DFT" >
   <i type="logical" name="LUSE_VDW"> F  </i>
   <i name="Zab_VDW">     -0.84910000</i>
   <i name="PARAM1">      0.12340000</i>
   <i name="PARAM2">      1.00000000</i>
   <i name="PARAM3">      0.00000000</i>
  </separator>
  <separator name="model GW" >
   <i type="int" name="MODEL_GW">     0</i>
   <i name="MODEL_EPS0">     30.82846644</i>
   <i name="MODEL_ALPHA">      1.00000000</i>
  </separator>
  <separator name="linear response parameters" >
   <i type="logical" name="LEPSILON"> F  </i>
   <i type="logical" name="LRPA"> F  </i>
   <i type="logical" name="LNABLA"> F  </i>
   <i type="logical" name="LVEL"> F  </i>
   <i type="int" name="KINTER">     0</i>
   <i name="CSHIFT">      0.10000000</i>
   <i name="OMEGAMAX">     -1.00000000</i>
   <i name="DEG_THRESHOLD">      0.00200000</i>
   <i name="RTIME">     -0.10000000</i>
   <i name="WPLASMAI">      0.00000000</i>
   <v name="DFIELD">      0.00000000      0.00000000      0.00000000</v>
   <v name="WPLASMA">      0.00000000      0.00000000      0.00000000      0.00000000      0.00000000      0.00000000      0.00000000      0.00000000      0.00000000</v>
  </separator>
  <separator name="orbital magnetization" >
   <i type="logical" name="NUCIND"> F  </i>
   <v name="MAGPOS">      0.00000000      0.00000000      0.00000000</v>
   <i type="logical" name="LNICSALL"> T  </i>
   <i type="logical" name="ORBITALMAG"> F  </i>
   <i type="logical" name="LMAGBLOCH"> F  </i>
   <i type="logical" name="LCHIMAG"> F  </i>
   <i type="logical" name="LGAUGE"> T  </i>
   <i type="int" name="MAGATOM">     0</i>
   <v name="MAGDIPOL">      0.00000000      0.00000000      0.00000000</v>
   <v name="AVECCONST">      0.00000000      0.00000000      0.00000000</v>
  </separator>
  <separator name="response functions" >
   <i type="logical" name="LADDER"> F  </i>
   <i type="logical" name="LRPAFORCE"> F  </i>
   <i type="logical" name="LFXC"> F  </i>
   <i type="logical" name="LHARTREE"> T  </i>
   <i type="int" name="IBSE">     0</i>
   <v type="int" name="KPOINT">    -1     0     0     0</v>
   <i type="logical" name="LTCTE"> F  </i>
   <i type="logical" name="LTETE"> F  </i>
   <i type="logical" name="LTRIPLET"> F  </i>
   <i type="logical" name="LFXCEPS"> F  </i>
   <i type="logical" name="LFXHEG"> F  </i>
   <i type="int" name="NATURALO">     2</i>
   <i type="logical" name="L2ORDER"> F  </i>
   <i type="logical" name="LMP2LT"> F  </i>
   <i type="logical" name="LUSEW"> F  </i>
   <i name="ENCUTGW">     -2.00000000</i>
   <i name="ENCUTGWSOFT">     -2.00000000</i>
   <i name="ENCUTLF">     -1.00000000</i>
   <i type="int" name="LMAXMP2">    -1</i>
   <i name="SCISSOR">      0.00000000</i>
   <i type="int" name="NOMEGA">     0</i>
   <i type="int" name="NOMEGAR">     0</i>
   <i type="int" name="NBANDSGW">    -1</i>
   <i type="int" name="NBANDSO">    -1</i>
   <i type="int" name="NBANDSV">    -1</i>
   <i type="int" name="NELM">   300</i>
   <i type="int" name="NELMHF">     1</i>
   <i type="int" name="DIM">     3</i>
   <i type="int" name="ANTIRES">     0</i>
   <i name="OMEGAMAX">    -30.00000000</i>
   <i name="OMEGAMIN">    -30.00000000</i>
   <i name="OMEGATL">   -200.00000000</i>
   <i type="int" name="OMEGAGRID">   140</i>
   <i name="CSHIFT">     -0.10000000</i>
   <i type="logical" name="SELFENERGY"> F  </i>
   <i type="logical" name="LSPECTRAL"> F  </i>
   <i type="logical" name="LSPECTRALGW"> F  </i>
   <i type="logical" name="LSINGLES"> F  </i>
   <i type="logical" name="LFERMIGW"> F  </i>
   <i type="logical" name="ODDONLYGW"> F  </i>
   <i type="logical" name="EVENONLYGW"> F  </i>
   <i type="int" name="NKREDLFX">     1</i>
   <i type="int" name="NKREDLFY">     1</i>
   <i type="int" name="NKREDLFZ">     1</i>
   <i type="int" name="MAXMEM">  2800</i>
   <i type="int" name="TELESCOPE">     0</i>
   <i type="int" name="TAUPAR">     1</i>
   <i type="int" name="OMEGAPAR">    -1</i>
   <i name="LAMBDA">      1.00000000</i>
  </separator>
  <separator name="External order field" >
   <i name="OFIELD_KAPPA">      0.00000000</i>
   <v name="OFIELD_K">      0.00000000      0.00000000      0.00000000</v>
   <i name="OFIELD_Q6_NEAR">      0.00000000</i>
   <i name="OFIELD_Q6_FAR">      0.00000000</i>
   <i name="OFIELD_A">      0.00000000</i>
  </separator>
 </parameters>
 <atominfo>
  <atoms>      51 </atoms>
  <types>       2 </types>
  <array name="atoms" >
   <dimension dim="1">ion</dimension>
   <field type="string">element</field>
   <field type="int">atomtype</field>
   <set>
    <rc><c>C </c><c>   1</c></rc>
    <rc><c>C </c><c>   1</c></rc>
    <rc><c>C </c><c>   1</c></rc>
    <rc><c>C </c><c>   1</c></rc>
    <rc><c>C </c><c>   1</c></rc>
    <rc><c>C </c><c>   1</c></rc>
    <rc><c>C </c><c>   1</c></rc>
    <rc><c>C </c><c>   1</c></rc>
    <rc><c>C </c><c>   1</c></rc>
    <rc><c>C </c><c>   1</c></rc>
    <rc><c>C </c><c>   1</c></rc>
    <rc><c>C </c><c>   1</c></rc>
    <rc><c>C </c><c>   1</c></rc>
    <rc><c>C </c><c>   1</c></rc>
    <rc><c>C </c><c>   1</c></rc>
    <rc><c>C </c><c>   1</c></rc>
    <rc><c>C </c><c>   1</c></rc>
    <rc><c>C </c><c>   1</c></rc>
    <rc><c>C </c><c>   1</c></rc>
    <rc><c>C </c><c>   1</c></rc>
    <rc><c>C </c><c>   1</c></rc>
    <rc><c>C </c><c>   1</c></rc>
    <rc><c>C </c><c>   1</c></rc>
    <rc><c>C </c><c>   1</c></rc>
    <rc><c>C </c><c>   1</c></rc>
    <rc><c>C </c><c>   1</c></rc>
    <rc><c>C </c><c>   1</c></rc>
    <rc><c>C </c><c>   1</c></rc>
    <rc><c>C </c><c>   1</c></rc>
    <rc><c>C </c><c>   1</c></rc>
    <rc><c>C </c><c>   1</c></rc>
    <rc><c>C </c><c>   1</c></rc>
    <rc><c>C </c><c>   1</c></rc>
    <rc><c>C </c><c>   1</c></rc>
    <rc><c>C </c><c>   1</c></rc>
    <rc><c>C </c><c>   1</c></rc>
    <rc><c>C </c><c>   1</c></rc>
    <rc><c>C </c><c>   1</c></rc>
    <rc><c>C </c><c>   1</c></rc>
    <rc><c>C </c><c>   1</c></rc>
    <rc><c>C </c><c>   1</c></rc>
    <rc><c>C </c><c>   1</c></rc>
    <rc><c>C </c><c>   1</c></rc>
    <rc><c>C </c><c>   1</c></rc>
    <rc><c>C </c><c>   1</c></rc>
    <rc><c>C </c><c>   1</c></rc>
    <rc><c>C </c><c>   1</c></rc>
    <rc><c>C </c><c>   1</c></rc>
    <rc><c>C </c><c>   1</c></rc>
    <rc><c>C </c><c>   1</c></rc>
    <rc><c>O </c><c>   2</c></rc>
   </set>
  </array>
  <array name="atomtypes" >
   <dimension dim="1">type</dimension>
   <field type="int">atomspertype</field>
   <field type="string">element</field>
   <field>mass</field>
   <field>valence</field>
   <field type="string">pseudopotential</field>
   <set>
    <rc><c>  50</c><c>C </c><c>     12.01100000</c><c>      4.00000000</c><c>  PAW_PBE C 08Apr2002                   </c></rc>
    <rc><c>   1</c><c>O </c><c>     16.00000000</c><c>      6.00000000</c><c>  PAW_PBE O 08Apr2002                   </c></rc>
   </set>
  </array>
 </atominfo>
 <structure name="initialpos" >
  <crystal>
   <varray name="basis" >
    <v>      12.30000019       0.00000000       0.00000000 </v>
    <v>       6.15000080      10.65211222       0.00000000 </v>
    <v>       0.00000000       0.00000000      20.00000000 </v>
   </varray>
   <i name="volume">   2620.41964732 </i>
   <varray name="rec_basis" >
    <v>       0.08130081      -0.04693905       0.00000000 </v>
    <v>       0.00000000       0.09387809       0.00000000 </v>
    <v>       0.00000000       0.00000000       0.05000000 </v>
   </varray>
  </crystal>
  <varray name="positions" >
   <v>       0.00000000       0.00000000       0.41799748 </v>
   <v>       0.20000000       0.00000000       0.41799748 </v>
   <v>       0.40081301       0.00000000       0.41799748 </v>
   <v>       0.60000000       0.00000000       0.41799748 </v>
   <v>       0.80000000       0.00000000       0.41799748 </v>
   <v>       0.00000000       0.20000000       0.41799748 </v>
   <v>       0.20000000       0.20000000       0.41799748 </v>
   <v>       0.40000000       0.20000000       0.41799748 </v>
   <v>       0.60000000       0.20000000       0.41799748 </v>
   <v>       0.80000000       0.20000000       0.41799748 </v>
   <v>       0.00000000       0.40000000       0.41799748 </v>
   <v>       0.20000000       0.40000000       0.41799748 </v>
   <v>       0.40000000       0.40000000       0.41799748 </v>
   <v>       0.60000000       0.40000000       0.41799748 </v>
   <v>       0.80000000       0.40000000       0.41799748 </v>
   <v>       0.00000000       0.60000000       0.41799748 </v>
   <v>       0.20000000       0.60000000       0.41799748 </v>
   <v>       0.40000000       0.60000000       0.41799748 </v>
   <v>       0.60000000       0.60000000       0.41799748 </v>
   <v>       0.80000000       0.60000000       0.41799748 </v>
   <v>       0.00000000       0.80000000       0.41799748 </v>
   <v>       0.20000000       0.80000000       0.41799748 </v>
   <v>       0.40000000       0.80000000       0.41799748 </v>
   <v>       0.60000000       0.80000000       0.41799748 </v>
   <v>       0.80000000       0.80000000       0.41799748 </v>
   <v>       0.06666667       0.06666660       0.41800609 </v>
   <v>       0.26666667       0.06666660       0.41800609 </v>
   <v>       0.46666667       0.06666660       0.41800609 </v>
   <v>       0.66666667       0.06666660       0.41800609 </v>
   <v>       0.86666667       0.06666660       0.41800609 </v>
   <v>       0.06666667       0.26666660       0.41800609 </v>
   <v>       0.26666667       0.26666660       0.41800609 </v>
   <v>       0.46666667       0.26666660       0.41800609 </v>
   <v>       0.66666667       0.26666660       0.41800609 </v>
   <v>       0.86666667       0.26666660       0.41800609 </v>
   <v>       0.06666667       0.46666660       0.41800609 </v>
   <v>       0.26666667       0.46666660       0.41800609 </v>
   <v>       0.46666667       0.46666660       0.41800609 </v>
   <v>       0.66666667       0.46666660       0.41800609 </v>
   <v>       0.86666667       0.46666660       0.41800609 </v>
   <v>       0.06666667       0.66666660       0.41800609 </v>
   <v>       0.26666667       0.66666660       0.41800609 </v>
   <v>       0.46666667       0.66666660       0.41800609 </v>
   <v>       0.66666667       0.66666660       0.41800609 </v>
   <v>       0.86666667       0.66666660       0.41800609 </v>
   <v>       0.06666667       0.86666660       0.41800609 </v>
   <v>       0.26666667       0.86666660       0.41800609 </v>
   <v>       0.46666667       0.86666660       0.41800609 </v>
   <v>       0.66666667       0.86666660       0.41800609 </v>
   <v>       0.86666667       0.86666660       0.41800609 </v>
   <v>       0.40000000       0.40000000       0.46800609 </v>
  </varray>
  <varray name="velocities" >
   <v>       0.00000000       0.00000000       0.00000000 </v>
   <v>       0.00000000       0.00000000       0.00000000 </v>
   <v>       0.00000000       0.00000000       0.00000000 </v>
   <v>       0.00000000       0.00000000       0.00000000 </v>
   <v>       0.00000000       0.00000000       0.00000000 </v>
   <v>       0.00000000       0.00000000       0.00000000 </v>
   <v>       0.00000000       0.00000000       0.00000000 </v>
   <v>       0.00000000       0.00000000       0.00000000 </v>
   <v>       0.00000000       0.00000000       0.00000000 </v>
   <v>       0.00000000       0.00000000       0.00000000 </v>
   <v>       0.00000000       0.00000000       0.00000000 </v>
   <v>       0.00000000       0.00000000       0.00000000 </v>
   <v>       0.00000000       0.00000000       0.00000000 </v>
   <v>       0.00000000       0.00000000       0.00000000 </v>
   <v>       0.00000000       0.00000000       0.00000000 </v>
   <v>       0.00000000       0.00000000       0.00000000 </v>
   <v>       0.00000000       0.00000000       0.00000000 </v>
   <v>       0.00000000       0.00000000       0.00000000 </v>
   <v>       0.00000000       0.00000000       0.00000000 </v>
   <v>       0.00000000       0.00000000       0.00000000 </v>
   <v>       0.00000000       0.00000000       0.00000000 </v>
   <v>       0.00000000       0.00000000       0.00000000 </v>
   <v>       0.00000000       0.00000000       0.00000000 </v>
   <v>       0.00000000       0.00000000       0.00000000 </v>
   <v>       0.00000000       0.00000000       0.00000000 </v>
   <v>       0.00000000       0.00000000       0.00000000 </v>
   <v>       0.00000000       0.00000000       0.00000000 </v>
   <v>       0.00000000       0.00000000       0.00000000 </v>
   <v>       0.00000000       0.00000000       0.00000000 </v>
   <v>       0.00000000       0.00000000       0.00000000 </v>
   <v>       0.00000000       0.00000000       0.00000000 </v>
   <v>       0.00000000       0.00000000       0.00000000 </v>
   <v>       0.00000000       0.00000000       0.00000000 </v>
   <v>       0.00000000       0.00000000       0.00000000 </v>
   <v>       0.00000000       0.00000000       0.00000000 </v>
   <v>       0.00000000       0.00000000       0.00000000 </v>
   <v>       0.00000000       0.00000000       0.00000000 </v>
   <v>       0.00000000       0.00000000       0.00000000 </v>
   <v>       0.00000000       0.00000000       0.00000000 </v>
   <v>       0.00000000       0.00000000       0.00000000 </v>
   <v>       0.00000000       0.00000000       0.00000000 </v>
   <v>       0.00000000       0.00000000       0.00000000 </v>
   <v>       0.00000000       0.00000000       0.00000000 </v>
   <v>       0.00000000       0.00000000       0.00000000 </v>
   <v>       0.00000000       0.00000000       0.00000000 </v>
   <v>       0.00000000       0.00000000       0.00000000 </v>
   <v>       0.00000000       0.00000000       0.00000000 </v>
   <v>       0.00000000       0.00000000       0.00000000 </v>
   <v>       0.00000000       0.00000000       0.00000000 </v>
   <v>       0.00000000       0.00000000       0.00000000 </v>
   <v>       0.00000000       0.00000000       0.00000000 </v>
  </varray>
 </structure>
 <calculation>
  <scstep>
   <time name="dav">    4.12    4.13</time>
   <time name="total">    4.72    4.73</time>
   <energy>
    <i name="alphaZ">     82.54348252 </i>
    <i name="ewald">  34516.58859943 </i>
    <i name="hartreedc"> -41034.89285196 </i>
    <i name="XCdc">    721.38004114 </i>
    <i name="pawpsdc">  22781.19595426 </i>
    <i name="pawaedc"> -22817.52509957 </i>
    <i name="eentropy">     -0.00046469 </i>
    <i name="bandstr">  -2491.20571166 </i>
    <i name="atom">   7788.62438962 </i>
    <i name="e_fr_energy">   -453.29166092 </i>
    <i name="e_wo_entrp">   -453.29119622 </i>
    <i name="e_0_energy">   -453.29142857 </i>
   </energy>
  </scstep>
  <scstep>
   <time name="diag">    0.89    0.89</time>
   <time name="diis">    3.74    3.75</time>
   <time name="orth">    0.04    0.04</time>
   <time name="total">    5.25    5.26</time>
   <energy>
    <i name="e_fr_energy">   -454.27944944 </i>
    <i name="e_wo_entrp">   -454.27935441 </i>
    <i name="e_0_energy">   -454.27940192 </i>
   </energy>
  </scstep>
  <scstep>
   <time name="diag">    0.89    0.89</time>
   <time name="diis">    4.11    4.12</time>
   <time name="orth">    0.04    0.04</time>
   <time name="total">    5.63    5.64</time>
   <energy>
    <i name="e_fr_energy">   -454.33172431 </i>
    <i name="e_wo_entrp">   -454.33159997 </i>
    <i name="e_0_energy">   -454.33166214 </i>
   </energy>
  </scstep>
  <scstep>
   <time name="diag">    0.88    0.88</time>
   <time name="diis">    4.14    4.14</time>
   <time name="orth">    0.04    0.04</time>
   <time name="total">    5.64    5.65</time>
   <energy>
    <i name="e_fr_energy">   -454.33566161 </i>
    <i name="e_wo_entrp">   -454.33555371 </i>
    <i name="e_0_energy">   -454.33560766 </i>
   </energy>
  </scstep>
  <scstep>
   <time name="diag">    0.89    0.89</time>
   <time name="diis">    4.00    4.01</time>
   <time name="orth">    0.04    0.04</time>
   <time name="total">    5.51    5.53</time>
   <energy>
    <i name="e_fr_energy">   -454.33577259 </i>
    <i name="e_wo_entrp">   -454.33566119 </i>
    <i name="e_0_energy">   -454.33571689 </i>
   </energy>
  </scstep>
  <scstep>
   <time name="diag">    0.88    0.89</time>
   <time name="diis">    4.05    4.07</time>
   <time name="orth">    0.04    0.04</time>
   <time name="total">    5.56    5.57</time>
   <energy>
    <i name="e_fr_energy">   -454.33579913 </i>
    <i name="e_wo_entrp">   -454.33568636 </i>
    <i name="e_0_energy">   -454.33574275 </i>
   </energy>
  </scstep>
  <scstep>
   <time name="diag">    0.89    0.90</time>
   <time name="diis">    2.92    2.92</time>
   <time name="orth">    0.04    0.04</time>
   <time name="total">    4.03    4.04</time>
   <energy>
    <i name="alphaZ">     82.54348252 </i>
    <i name="ewald">  34516.58859943 </i>
    <i name="hartreedc"> -41034.97510117 </i>
    <i name="XCdc">    721.38587661 </i>
    <i name="pawpsdc">  22777.14640080 </i>
    <i name="pawaedc"> -22813.47891916 </i>
    <i name="eentropy">     -0.00011379 </i>
    <i name="bandstr">  -2492.17042125 </i>
    <i name="atom">   7788.62438962 </i>
    <i name="e_fr_energy">   -454.33580639 </i>
    <i name="e_wo_entrp">   -454.33569260 </i>
    <i name="e_0_energy">   -454.33574950 </i>
   </energy>
  </scstep>
  <structure>
   <crystal>
    <varray name="basis" >
     <v>      12.30000019       0.00000000       0.00000000 </v>
     <v>       6.15000080      10.65211222       0.00000000 </v>
     <v>       0.00000000       0.00000000      20.00000000 </v>
    </varray>
    <i name="volume">   2620.41964732 </i>
    <varray name="rec_basis" >
     <v>       0.08130081      -0.04693905       0.00000000 </v>
     <v>       0.00000000       0.09387809       0.00000000 </v>
     <v>       0.00000000       0.00000000       0.05000000 </v>
    </varray>
   </crystal>
   <varray name="positions" >
    <v>       0.00000000       0.00000000       0.41799748 </v>
    <v>       0.20000000       0.00000000       0.41799748 </v>
    <v>       0.40081301       0.00000000       0.41799748 </v>
    <v>       0.60000000       0.00000000       0.41799748 </v>
    <v>       0.80000000       0.00000000       0.41799748 </v>
    <v>       0.00000000       0.20000000       0.41799748 </v>
    <v>       0.20000000       0.20000000       0.41799748 </v>
    <v>       0.40000000       0.20000000       0.41799748 </v>
    <v>       0.60000000       0.20000000       0.41799748 </v>
    <v>       0.80000000       0.20000000       0.41799748 </v>
    <v>       0.00000000       0.40000000       0.41799748 </v>
    <v>       0.20000000       0.40000000       0.41799748 </v>
    <v>       0.40000000       0.40000000       0.41799748 </v>
    <v>       0.60000000       0.40000000       0.41799748 </v>
    <v>       0.80000000       0.40000000       0.41799748 </v>
    <v>       0.00000000       0.60000000       0.41799748 </v>
    <v>       0.20000000       0.60000000       0.41799748 </v>
    <v>       0.40000000       0.60000000       0.41799748 </v>
    <v>       0.60000000       0.60000000       0.41799748 </v>
    <v>       0.80000000       0.60000000       0.41799748 </v>
    <v>       0.00000000       0.80000000       0.41799748 </v>
    <v>       0.20000000       0.80000000       0.41799748 </v>
    <v>       0.40000000       0.80000000       0.41799748 </v>
    <v>       0.60000000       0.80000000       0.41799748 </v>
    <v>       0.80000000       0.80000000       0.41799748 </v>
    <v>       0.06666667       0.06666660       0.41800609 </v>
    <v>       0.26666667       0.06666660       0.41800609 </v>
    <v>       0.46666667       0.06666660       0.41800609 </v>
    <v>       0.66666667       0.06666660       0.41800609 </v>
    <v>       0.86666667       0.06666660       0.41800609 </v>
    <v>       0.06666667       0.26666660       0.41800609 </v>
    <v>       0.26666667       0.26666660       0.41800609 </v>
    <v>       0.46666667       0.26666660       0.41800609 </v>
    <v>       0.66666667       0.26666660       0.41800609 </v>
    <v>       0.86666667       0.26666660       0.41800609 </v>
    <v>       0.06666667       0.46666660       0.41800609 </v>
    <v>       0.26666667       0.46666660       0.41800609 </v>
    <v>       0.46666667       0.46666660       0.41800609 </v>
    <v>       0.66666667       0.46666660       0.41800609 </v>
    <v>       0.86666667       0.46666660       0.41800609 </v>
    <v>       0.06666667       0.66666660       0.41800609 </v>
    <v>       0.26666667       0.66666660       0.41800609 </v>
    <v>       0.46666667       0.66666660       0.41800609 </v>
    <v>       0.66666667       0.66666660       0.41800609 </v>
    <v>       0.86666667       0.66666660       0.41800609 </v>
    <v>       0.06666667       0.86666660       0.41800609 </v>
    <v>       0.26666667       0.86666660       0.41800609 </v>
    <v>       0.46666667       0.86666660       0.41800609 </v>
    <v>       0.66666667       0.86666660       0.41800609 </v>
    <v>       0.86666667       0.86666660       0.41800609 </v>
    <v>       0.40000000       0.40000000       0.46800609 </v>
   </varray>
  </structure>
  <varray name="forces" >
   <v>      -0.04578893      -0.02728375       0.00942283 </v>
   <v>       0.09525850      -0.02378780       0.00899746 </v>
   <v>      -0.78976663       0.00340448      -0.02538341 </v>
   <v>       0.04471330      -0.20926173      -0.02702100 </v>
   <v>       0.16096532       0.01370821      -0.02630322 </v>
   <v>       0.00302204       0.05324501       0.00937258 </v>
   <v>       0.41973500       0.21390471       0.00026434 </v>
   <v>       0.09005357      -0.17031822       0.16287443 </v>
   <v>      -0.09308337      -0.20332058       0.16527707 </v>
   <v>      -0.42805725       0.24744902       0.00000468 </v>
   <v>      -0.06976173      -0.14788529      -0.02611175 </v>
   <v>      -0.13381864       0.18361771       0.16545964 </v>
   <v>       0.00112094      -0.00561678     -48.16149758 </v>
   <v>       0.13045188       0.18474365       0.16502252 </v>
   <v>       0.06755554      -0.14596760      -0.02611480 </v>
   <v>      -0.17967504       0.10417049      -0.02697151 </v>
   <v>      -0.22384562       0.02199951       0.16509440 </v>
   <v>       0.22390301       0.02163569       0.16518051 </v>
   <v>       0.18110421       0.10337185      -0.02699458 </v>
   <v>      -0.00255521      -0.01417369       0.01782008 </v>
   <v>       0.09439797       0.13049684      -0.02590718 </v>
   <v>       0.00397420      -0.49285808       0.00004546 </v>
   <v>      -0.10113562       0.15906690      -0.02583743 </v>
   <v>      -0.01814623      -0.02152400       0.01781850 </v>
   <v>       0.01570941       0.00475690       0.01777269 </v>
   <v>      -0.00330292       0.00736751      -0.00621189 </v>
   <v>       0.31216084      -0.28039031       0.01042837 </v>
   <v>       0.42283563       0.32101015       0.25830125 </v>
   <v>      -0.19592886       0.24370542       0.25687472 </v>
   <v>      -0.09749849      -0.21735247       0.01012413 </v>
   <v>      -0.14569432       0.19859009       0.01019951 </v>
   <v>      -0.42251688      -0.25346699      -0.35611524 </v>
   <v>      -0.00877475      -5.08212274      -4.35244461 </v>
   <v>       0.43975593      -0.25487229      -0.35484369 </v>
   <v>       0.13723051       0.19407644       0.01005775 </v>
   <v>       0.31734051       0.04302423       0.25727351 </v>
   <v>      -4.39186092       2.53711846      -4.34744304 </v>
   <v>       4.39482266       2.53856532      -4.34755526 </v>
   <v>      -0.31514446       0.04379936       0.25707338 </v>
   <v>       0.00089301       0.08246229      -0.02214016 </v>
   <v>       0.11927377      -0.29336230       0.25715889 </v>
   <v>      -0.00084619       0.50784335      -0.35569618 </v>
   <v>      -0.11437541      -0.29034473       0.25701936 </v>
   <v>      -0.07579823      -0.05135642      -0.02632928 </v>
   <v>       0.08303661      -0.04556655      -0.02647377 </v>
   <v>      -0.23896408       0.02403309       0.01007980 </v>
   <v>       0.23618514       0.01109669       0.01020034 </v>
   <v>       0.17676939      -0.03885354      -0.02249021 </v>
   <v>      -0.00244585       0.10475753      -0.02640990 </v>
   <v>      -0.07396831      -0.04064287      -0.02206991 </v>
   <v>       0.00048507       0.00730782      59.98914742 </v>
  </varray>
  <varray name="stress" >
   <v>       9.50970882       0.07938492       0.00027159 </v>
   <v>       0.07938493       9.51215082       0.00444114 </v>
   <v>       0.00027158       0.00444114      31.89923756 </v>
  </varray>
  <energy>
   <i name="e_fr_energy">   -454.33580639 </i>
   <i name="e_wo_entrp">   -454.33574950 </i>
   <i name="e_0_energy">     -0.00011379 </i>
  </energy>
  <time name="totalsc">   42.48   42.57</time>
  <eigenvalues>
   <array>
    <dimension dim="1">band</dimension>
    <dimension dim="2">kpoint</dimension>
    <dimension dim="3">spin</dimension>
    <field>eigene</field>
    <field>occ</field>
    <set>
     <set comment="spin 1">
      <set comment="kpoint 1">
       <r>  -31.7385    1.0000 </r>
       <r>  -22.2705    1.0000 </r>
       <r>  -21.5046    1.0000 </r>
       <r>  -21.5021    1.0000 </r>
       <r>  -21.3974    1.0000 </r>
       <r>  -21.3942    1.0000 </r>
       <r>  -21.3897    1.0000 </r>
       <r>  -20.8740    1.0000 </r>
       <r>  -19.8778    1.0000 </r>
       <r>  -19.8745    1.0000 </r>
       <r>  -19.5508    1.0000 </r>
       <r>  -19.5465    1.0000 </r>
       <r>  -19.5394    1.0000 </r>
       <r>  -19.1899    1.0000 </r>
       <r>  -18.9061    1.0000 </r>
       <r>  -18.8977    1.0000 </r>
       <r>  -18.6456    1.0000 </r>
       <r>  -18.6433    1.0000 </r>
       <r>  -18.6408    1.0000 </r>
       <r>  -17.8830    1.0000 </r>
       <r>  -17.0230    1.0000 </r>
       <r>  -17.0183    1.0000 </r>
       <r>  -16.4736    1.0000 </r>
       <r>  -16.4618    1.0000 </r>
       <r>  -16.4579    1.0000 </r>
       <r>  -16.0480    1.0000 </r>
       <r>  -15.9968    1.0000 </r>
       <r>  -15.9967    1.0000 </r>
       <r>  -15.5014    1.0000 </r>
       <r>  -15.4951    1.0000 </r>
       <r>  -15.4936    1.0000 </r>
       <r>  -15.0887    1.0000 </r>
       <r>  -14.6312    1.0000 </r>
       <r>  -14.6256    1.0000 </r>
       <r>  -14.1498    1.0000 </r>
       <r>  -14.1481    1.0000 </r>
       <r>  -14.1407    1.0000 </r>
       <r>  -13.9684    1.0000 </r>
       <r>  -12.9907    1.0000 </r>
       <r>  -12.9888    1.0000 </r>
       <r>  -12.0306    1.0000 </r>
       <r>  -11.7666    1.0000 </r>
       <r>  -11.7637    1.0000 </r>
       <r>  -11.7620    1.0000 </r>
       <r>  -11.6926    1.0000 </r>
       <r>  -11.6893    1.0000 </r>
       <r>  -11.6533    1.0000 </r>
       <r>  -11.6498    1.0000 </r>
       <r>  -11.6491    1.0000 </r>
       <r>  -11.6462    1.0000 </r>
       <r>  -10.8014    1.0000 </r>
       <r>  -10.7991    1.0000 </r>
       <r>  -10.4275    1.0000 </r>
       <r>  -10.3339    1.0000 </r>
       <r>  -10.2934    1.0000 </r>
       <r>  -10.2866    1.0000 </r>
       <r>  -10.2685    1.0000 </r>
       <r>  -10.0761    1.0000 </r>
       <r>   -9.6874    1.0000 </r>
       <r>   -9.6837    1.0000 </r>
       <r>   -9.3255    1.0000 </r>
       <r>   -9.3236    1.0000 </r>
       <r>   -9.3002    1.0000 </r>
       <r>   -9.2816    1.0000 </r>
       <r>   -9.2790    1.0000 </r>
       <r>   -9.0449    1.0000 </r>
       <r>   -9.0096    1.0000 </r>
       <r>   -9.0042    1.0000 </r>
       <r>   -8.9517    1.0000 </r>
       <r>   -8.9448    1.0000 </r>
       <r>   -8.9403    1.0000 </r>
       <r>   -8.9336    1.0000 </r>
       <r>   -8.9231    1.0000 </r>
       <r>   -8.9174    1.0000 </r>
       <r>   -8.8853    1.0000 </r>
       <r>   -8.4368    1.0000 </r>
       <r>   -7.8047    1.0000 </r>
       <r>   -7.7955    1.0000 </r>
       <r>   -7.3261    1.0000 </r>
       <r>   -7.3221    1.0000 </r>
       <r>   -7.3141    1.0000 </r>
       <r>   -7.3008    1.0000 </r>
       <r>   -7.2999    1.0000 </r>
       <r>   -7.2964    1.0000 </r>
       <r>   -7.1626    1.0000 </r>
       <r>   -7.1593    1.0000 </r>
       <r>   -7.1538    1.0000 </r>
       <r>   -6.7510    1.0000 </r>
       <r>   -6.5117    1.0000 </r>
       <r>   -6.5057    1.0000 </r>
       <r>   -6.2676    1.0000 </r>
       <r>   -6.2475    1.0000 </r>
       <r>   -6.2432    1.0000 </r>
       <r>   -5.9272    1.0000 </r>
       <r>   -5.9153    1.0000 </r>
       <r>   -5.1953    1.0000 </r>
       <r>   -4.7658    1.0000 </r>
       <r>   -4.7610    1.0000 </r>
       <r>   -4.2711    1.0000 </r>
       <r>   -4.2666    1.0000 </r>
       <r>   -4.2645    1.0000 </r>
       <r>   -3.2147    1.0000 </r>
       <r>   -3.2143    1.0000 </r>
       <r>   -2.9159    0.0021 </r>
       <r>   -1.4678    0.0000 </r>
       <r>   -1.4571    0.0000 </r>
       <r>   -1.4531    0.0000 </r>
       <r>   -0.9931    0.0000 </r>
       <r>   -0.9861    0.0000 </r>
       <r>   -0.5423    0.0000 </r>
       <r>    0.4148    0.0000 </r>
       <r>    0.4193    0.0000 </r>
       <r>    0.4232    0.0000 </r>
       <r>    0.5617    0.0000 </r>
       <r>    0.8432    0.0000 </r>
       <r>    0.8497    0.0000 </r>
       <r>    1.2926    0.0000 </r>
       <r>    1.3398    0.0000 </r>
       <r>    1.6807    0.0000 </r>
       <r>    1.8015    0.0000 </r>
       <r>    1.8021    0.0000 </r>
       <r>    1.8035    0.0000 </r>
       <r>    1.8251    0.0000 </r>
       <r>    1.8266    0.0000 </r>
       <r>    2.0309    0.0000 </r>
       <r>    2.1733    0.0000 </r>
       <r>    2.1785    0.0000 </r>
       <r>    2.1817    0.0000 </r>
       <r>    2.3454    0.0000 </r>
       <r>    2.3491    0.0000 </r>
       <r>    2.6282    0.0000 </r>
       <r>    2.6484    0.0000 </r>
      </set>
      <set comment="kpoint 2">
       <r>  -31.7385    1.0000 </r>
       <r>  -22.1884    1.0000 </r>
       <r>  -21.8688    1.0000 </r>
       <r>  -21.6622    1.0000 </r>
       <r>  -21.4541    1.0000 </r>
       <r>  -21.0354    1.0000 </r>
       <r>  -20.8964    1.0000 </r>
       <r>  -20.7266    1.0000 </r>
       <r>  -20.4201    1.0000 </r>
       <r>  -20.1599    1.0000 </r>
       <r>  -19.7876    1.0000 </r>
       <r>  -19.7010    1.0000 </r>
       <r>  -19.3260    1.0000 </r>
       <r>  -19.2428    1.0000 </r>
       <r>  -19.0604    1.0000 </r>
       <r>  -18.5941    1.0000 </r>
       <r>  -18.4573    1.0000 </r>
       <r>  -18.1212    1.0000 </r>
       <r>  -18.0608    1.0000 </r>
       <r>  -17.5928    1.0000 </r>
       <r>  -17.4987    1.0000 </r>
       <r>  -17.2995    1.0000 </r>
       <r>  -17.2752    1.0000 </r>
       <r>  -16.8527    1.0000 </r>
       <r>  -16.6554    1.0000 </r>
       <r>  -16.1751    1.0000 </r>
       <r>  -15.9783    1.0000 </r>
       <r>  -15.8478    1.0000 </r>
       <r>  -15.2984    1.0000 </r>
       <r>  -15.1686    1.0000 </r>
       <r>  -15.1359    1.0000 </r>
       <r>  -14.8864    1.0000 </r>
       <r>  -14.7814    1.0000 </r>
       <r>  -14.4765    1.0000 </r>
       <r>  -14.4552    1.0000 </r>
       <r>  -13.7691    1.0000 </r>
       <r>  -13.7601    1.0000 </r>
       <r>  -13.1955    1.0000 </r>
       <r>  -13.0869    1.0000 </r>
       <r>  -12.9339    1.0000 </r>
       <r>  -12.8996    1.0000 </r>
       <r>  -12.5836    1.0000 </r>
       <r>  -12.5477    1.0000 </r>
       <r>  -12.3911    1.0000 </r>
       <r>  -12.0261    1.0000 </r>
       <r>  -11.6679    1.0000 </r>
       <r>  -11.4476    1.0000 </r>
       <r>  -11.2961    1.0000 </r>
       <r>  -11.1223    1.0000 </r>
       <r>  -10.9122    1.0000 </r>
       <r>  -10.8489    1.0000 </r>
       <r>  -10.5835    1.0000 </r>
       <r>  -10.5344    1.0000 </r>
       <r>  -10.2837    1.0000 </r>
       <r>  -10.2365    1.0000 </r>
       <r>  -10.1566    1.0000 </r>
       <r>  -10.0479    1.0000 </r>
       <r>   -9.8530    1.0000 </r>
       <r>   -9.8192    1.0000 </r>
       <r>   -9.6531    1.0000 </r>
       <r>   -9.6081    1.0000 </r>
       <r>   -9.5600    1.0000 </r>
       <r>   -9.5281    1.0000 </r>
       <r>   -9.3692    1.0000 </r>
       <r>   -9.3401    1.0000 </r>
       <r>   -9.2597    1.0000 </r>
       <r>   -9.1752    1.0000 </r>
       <r>   -9.1003    1.0000 </r>
       <r>   -9.0812    1.0000 </r>
       <r>   -8.8653    1.0000 </r>
       <r>   -8.7143    1.0000 </r>
       <r>   -8.6637    1.0000 </r>
       <r>   -8.5046    1.0000 </r>
       <r>   -8.4052    1.0000 </r>
       <r>   -8.2890    1.0000 </r>
       <r>   -8.1350    1.0000 </r>
       <r>   -8.0934    1.0000 </r>
       <r>   -8.0685    1.0000 </r>
       <r>   -7.9732    1.0000 </r>
       <r>   -7.8059    1.0000 </r>
       <r>   -7.6186    1.0000 </r>
       <r>   -7.3607    1.0000 </r>
       <r>   -7.3348    1.0000 </r>
       <r>   -7.2592    1.0000 </r>
       <r>   -7.1959    1.0000 </r>
       <r>   -6.9201    1.0000 </r>
       <r>   -6.8735    1.0000 </r>
       <r>   -6.6973    1.0000 </r>
       <r>   -6.5899    1.0000 </r>
       <r>   -6.3429    1.0000 </r>
       <r>   -6.1867    1.0000 </r>
       <r>   -6.0754    1.0000 </r>
       <r>   -5.9216    1.0000 </r>
       <r>   -5.7385    1.0000 </r>
       <r>   -5.6390    1.0000 </r>
       <r>   -5.3257    1.0000 </r>
       <r>   -5.1133    1.0000 </r>
       <r>   -4.9701    1.0000 </r>
       <r>   -4.9237    1.0000 </r>
       <r>   -4.2704    1.0000 </r>
       <r>   -4.1650    1.0000 </r>
       <r>   -3.3365    1.0000 </r>
       <r>   -3.1361    0.9996 </r>
       <r>   -2.8036    0.0000 </r>
       <r>   -1.5958    0.0000 </r>
       <r>   -1.4234    0.0000 </r>
       <r>   -0.8371    0.0000 </r>
       <r>   -0.8220    0.0000 </r>
       <r>   -0.7024    0.0000 </r>
       <r>   -0.6657    0.0000 </r>
       <r>   -0.1302    0.0000 </r>
       <r>   -0.0065    0.0000 </r>
       <r>    0.2941    0.0000 </r>
       <r>    0.7041    0.0000 </r>
       <r>    0.7289    0.0000 </r>
       <r>    1.0992    0.0000 </r>
       <r>    1.1751    0.0000 </r>
       <r>    1.3633    0.0000 </r>
       <r>    1.4623    0.0000 </r>
       <r>    1.5367    0.0000 </r>
       <r>    1.5707    0.0000 </r>
       <r>    1.6371    0.0000 </r>
       <r>    1.8302    0.0000 </r>
       <r>    1.9115    0.0000 </r>
       <r>    2.0391    0.0000 </r>
       <r>    2.2228    0.0000 </r>
       <r>    2.2710    0.0000 </r>
       <r>    2.3287    0.0000 </r>
       <r>    2.3387    0.0000 </r>
       <r>    2.3949    0.0000 </r>
       <r>    2.4576    0.0000 </r>
       <r>    2.7952    0.0000 </r>
      </set>
      <set comment="kpoint 3">
       <r>  -31.7385    1.0000 </r>
       <r>  -22.1885    1.0000 </r>
       <r>  -21.8689    1.0000 </r>
       <r>  -21.6599    1.0000 </r>
       <r>  -21.4576    1.0000 </r>
       <r>  -21.0329    1.0000 </r>
       <r>  -20.8972    1.0000 </r>
       <r>  -20.7268    1.0000 </r>
       <r>  -20.4184    1.0000 </r>
       <r>  -20.1630    1.0000 </r>
       <r>  -19.7872    1.0000 </r>
       <r>  -19.6999    1.0000 </r>
       <r>  -19.3217    1.0000 </r>
       <r>  -19.2476    1.0000 </r>
       <r>  -19.0615    1.0000 </r>
       <r>  -18.5912    1.0000 </r>
       <r>  -18.4571    1.0000 </r>
       <r>  -18.1230    1.0000 </r>
       <r>  -18.0614    1.0000 </r>
       <r>  -17.5914    1.0000 </r>
       <r>  -17.4984    1.0000 </r>
       <r>  -17.3002    1.0000 </r>
       <r>  -17.2769    1.0000 </r>
       <r>  -16.8494    1.0000 </r>
       <r>  -16.6582    1.0000 </r>
       <r>  -16.1754    1.0000 </r>
       <r>  -15.9789    1.0000 </r>
       <r>  -15.8453    1.0000 </r>
       <r>  -15.2988    1.0000 </r>
       <r>  -15.1699    1.0000 </r>
       <r>  -15.1332    1.0000 </r>
       <r>  -14.8871    1.0000 </r>
       <r>  -14.7814    1.0000 </r>
       <r>  -14.4783    1.0000 </r>
       <r>  -14.4541    1.0000 </r>
       <r>  -13.7685    1.0000 </r>
       <r>  -13.7594    1.0000 </r>
       <r>  -13.1974    1.0000 </r>
       <r>  -13.0848    1.0000 </r>
       <r>  -12.9380    1.0000 </r>
       <r>  -12.9040    1.0000 </r>
       <r>  -12.5830    1.0000 </r>
       <r>  -12.5490    1.0000 </r>
       <r>  -12.3908    1.0000 </r>
       <r>  -12.0205    1.0000 </r>
       <r>  -11.6614    1.0000 </r>
       <r>  -11.4471    1.0000 </r>
       <r>  -11.2959    1.0000 </r>
       <r>  -11.1216    1.0000 </r>
       <r>  -10.9121    1.0000 </r>
       <r>  -10.8499    1.0000 </r>
       <r>  -10.5874    1.0000 </r>
       <r>  -10.5349    1.0000 </r>
       <r>  -10.2833    1.0000 </r>
       <r>  -10.2365    1.0000 </r>
       <r>  -10.1588    1.0000 </r>
       <r>  -10.0476    1.0000 </r>
       <r>   -9.8531    1.0000 </r>
       <r>   -9.8188    1.0000 </r>
       <r>   -9.6558    1.0000 </r>
       <r>   -9.6077    1.0000 </r>
       <r>   -9.5617    1.0000 </r>
       <r>   -9.5284    1.0000 </r>
       <r>   -9.3711    1.0000 </r>
       <r>   -9.3412    1.0000 </r>
       <r>   -9.2583    1.0000 </r>
       <r>   -9.1716    1.0000 </r>
       <r>   -9.1006    1.0000 </r>
       <r>   -9.0840    1.0000 </r>
       <r>   -8.8639    1.0000 </r>
       <r>   -8.7135    1.0000 </r>
       <r>   -8.6648    1.0000 </r>
       <r>   -8.5040    1.0000 </r>
       <r>   -8.4025    1.0000 </r>
       <r>   -8.2871    1.0000 </r>
       <r>   -8.1318    1.0000 </r>
       <r>   -8.0953    1.0000 </r>
       <r>   -8.0618    1.0000 </r>
       <r>   -7.9742    1.0000 </r>
       <r>   -7.8076    1.0000 </r>
       <r>   -7.6186    1.0000 </r>
       <r>   -7.3606    1.0000 </r>
       <r>   -7.3355    1.0000 </r>
       <r>   -7.2671    1.0000 </r>
       <r>   -7.1978    1.0000 </r>
       <r>   -6.9161    1.0000 </r>
       <r>   -6.8774    1.0000 </r>
       <r>   -6.6931    1.0000 </r>
       <r>   -6.5905    1.0000 </r>
       <r>   -6.3469    1.0000 </r>
       <r>   -6.1834    1.0000 </r>
       <r>   -6.0720    1.0000 </r>
       <r>   -5.9207    1.0000 </r>
       <r>   -5.7401    1.0000 </r>
       <r>   -5.6403    1.0000 </r>
       <r>   -5.3231    1.0000 </r>
       <r>   -5.1164    1.0000 </r>
       <r>   -4.9708    1.0000 </r>
       <r>   -4.9224    1.0000 </r>
       <r>   -4.2699    1.0000 </r>
       <r>   -4.1660    1.0000 </r>
       <r>   -3.3355    1.0000 </r>
       <r>   -3.1359    0.9996 </r>
       <r>   -2.8047    0.0000 </r>
       <r>   -1.5957    0.0000 </r>
       <r>   -1.4232    0.0000 </r>
       <r>   -0.8398    0.0000 </r>
       <r>   -0.8167    0.0000 </r>
       <r>   -0.7034    0.0000 </r>
       <r>   -0.6656    0.0000 </r>
       <r>   -0.1290    0.0000 </r>
       <r>   -0.0061    0.0000 </r>
       <r>    0.2906    0.0000 </r>
       <r>    0.7041    0.0000 </r>
       <r>    0.7258    0.0000 </r>
       <r>    1.0992    0.0000 </r>
       <r>    1.1751    0.0000 </r>
       <r>    1.3696    0.0000 </r>
       <r>    1.4630    0.0000 </r>
       <r>    1.5379    0.0000 </r>
       <r>    1.5679    0.0000 </r>
       <r>    1.6349    0.0000 </r>
       <r>    1.8311    0.0000 </r>
       <r>    1.9127    0.0000 </r>
       <r>    2.0430    0.0000 </r>
       <r>    2.2269    0.0000 </r>
       <r>    2.2741    0.0000 </r>
       <r>    2.3355    0.0000 </r>
       <r>    2.4266    0.0000 </r>
       <r>    2.7399    0.0000 </r>
       <r>    3.2542    0.0000 </r>
       <r>    3.6118    0.0000 </r>
      </set>
      <set comment="kpoint 4">
       <r>  -31.7385    1.0000 </r>
       <r>  -22.1882    1.0000 </r>
       <r>  -21.8697    1.0000 </r>
       <r>  -21.6617    1.0000 </r>
       <r>  -21.4533    1.0000 </r>
       <r>  -21.0347    1.0000 </r>
       <r>  -20.8973    1.0000 </r>
       <r>  -20.7267    1.0000 </r>
       <r>  -20.4216    1.0000 </r>
       <r>  -20.1604    1.0000 </r>
       <r>  -19.7868    1.0000 </r>
       <r>  -19.6982    1.0000 </r>
       <r>  -19.3278    1.0000 </r>
       <r>  -19.2393    1.0000 </r>
       <r>  -19.0628    1.0000 </r>
       <r>  -18.5944    1.0000 </r>
       <r>  -18.4597    1.0000 </r>
       <r>  -18.1204    1.0000 </r>
       <r>  -18.0622    1.0000 </r>
       <r>  -17.5905    1.0000 </r>
       <r>  -17.4965    1.0000 </r>
       <r>  -17.2998    1.0000 </r>
       <r>  -17.2757    1.0000 </r>
       <r>  -16.8522    1.0000 </r>
       <r>  -16.6570    1.0000 </r>
       <r>  -16.1762    1.0000 </r>
       <r>  -15.9797    1.0000 </r>
       <r>  -15.8486    1.0000 </r>
       <r>  -15.2963    1.0000 </r>
       <r>  -15.1688    1.0000 </r>
       <r>  -15.1346    1.0000 </r>
       <r>  -14.8812    1.0000 </r>
       <r>  -14.7790    1.0000 </r>
       <r>  -14.4790    1.0000 </r>
       <r>  -14.4595    1.0000 </r>
       <r>  -13.7692    1.0000 </r>
       <r>  -13.7590    1.0000 </r>
       <r>  -13.1935    1.0000 </r>
       <r>  -13.0902    1.0000 </r>
       <r>  -12.9373    1.0000 </r>
       <r>  -12.9051    1.0000 </r>
       <r>  -12.5845    1.0000 </r>
       <r>  -12.5505    1.0000 </r>
       <r>  -12.3862    1.0000 </r>
       <r>  -12.0209    1.0000 </r>
       <r>  -11.6631    1.0000 </r>
       <r>  -11.4478    1.0000 </r>
       <r>  -11.2931    1.0000 </r>
       <r>  -11.1162    1.0000 </r>
       <r>  -10.9141    1.0000 </r>
       <r>  -10.8511    1.0000 </r>
       <r>  -10.5866    1.0000 </r>
       <r>  -10.5320    1.0000 </r>
       <r>  -10.2862    1.0000 </r>
       <r>  -10.2364    1.0000 </r>
       <r>  -10.1607    1.0000 </r>
       <r>  -10.0478    1.0000 </r>
       <r>   -9.8535    1.0000 </r>
       <r>   -9.8242    1.0000 </r>
       <r>   -9.6529    1.0000 </r>
       <r>   -9.6077    1.0000 </r>
       <r>   -9.5640    1.0000 </r>
       <r>   -9.5268    1.0000 </r>
       <r>   -9.3732    1.0000 </r>
       <r>   -9.3385    1.0000 </r>
       <r>   -9.2582    1.0000 </r>
       <r>   -9.1746    1.0000 </r>
       <r>   -9.0998    1.0000 </r>
       <r>   -9.0832    1.0000 </r>
       <r>   -8.8647    1.0000 </r>
       <r>   -8.7111    1.0000 </r>
       <r>   -8.6644    1.0000 </r>
       <r>   -8.5037    1.0000 </r>
       <r>   -8.4010    1.0000 </r>
       <r>   -8.2861    1.0000 </r>
       <r>   -8.1332    1.0000 </r>
       <r>   -8.0889    1.0000 </r>
       <r>   -8.0615    1.0000 </r>
       <r>   -7.9749    1.0000 </r>
       <r>   -7.8062    1.0000 </r>
       <r>   -7.6218    1.0000 </r>
       <r>   -7.3613    1.0000 </r>
       <r>   -7.3375    1.0000 </r>
       <r>   -7.2675    1.0000 </r>
       <r>   -7.2004    1.0000 </r>
       <r>   -6.9231    1.0000 </r>
       <r>   -6.8707    1.0000 </r>
       <r>   -6.6902    1.0000 </r>
       <r>   -6.5916    1.0000 </r>
       <r>   -6.3521    1.0000 </r>
       <r>   -6.1809    1.0000 </r>
       <r>   -6.0709    1.0000 </r>
       <r>   -5.9239    1.0000 </r>
       <r>   -5.7383    1.0000 </r>
       <r>   -5.6397    1.0000 </r>
       <r>   -5.3220    1.0000 </r>
       <r>   -5.1142    1.0000 </r>
       <r>   -4.9702    1.0000 </r>
       <r>   -4.9212    1.0000 </r>
       <r>   -4.2703    1.0000 </r>
       <r>   -4.1684    1.0000 </r>
       <r>   -3.3358    1.0000 </r>
       <r>   -3.1379    0.9997 </r>
       <r>   -2.8048    0.0000 </r>
       <r>   -1.5893    0.0000 </r>
       <r>   -1.4218    0.0000 </r>
       <r>   -0.8409    0.0000 </r>
       <r>   -0.8170    0.0000 </r>
       <r>   -0.7044    0.0000 </r>
       <r>   -0.6722    0.0000 </r>
       <r>   -0.1290    0.0000 </r>
       <r>   -0.0060    0.0000 </r>
       <r>    0.2942    0.0000 </r>
       <r>    0.7044    0.0000 </r>
       <r>    0.7256    0.0000 </r>
       <r>    1.0996    0.0000 </r>
       <r>    1.1759    0.0000 </r>
       <r>    1.3650    0.0000 </r>
       <r>    1.4641    0.0000 </r>
       <r>    1.5618    0.0000 </r>
       <r>    1.5810    0.0000 </r>
       <r>    1.7522    0.0000 </r>
       <r>    1.8315    0.0000 </r>
       <r>    2.1793    0.0000 </r>
       <r>    2.3354    0.0000 </r>
       <r>    2.3966    0.0000 </r>
       <r>    2.6162    0.0000 </r>
       <r>    2.7878    0.0000 </r>
       <r>    2.8465    0.0000 </r>
       <r>    3.2030    0.0000 </r>
       <r>    3.5947    0.0000 </r>
       <r>    4.1780    0.0000 </r>
      </set>
      <set comment="kpoint 5">
       <r>  -31.7386    1.0000 </r>
       <r>  -22.0790    1.0000 </r>
       <r>  -22.0082    1.0000 </r>
       <r>  -21.8019    1.0000 </r>
       <r>  -21.1731    1.0000 </r>
       <r>  -21.1502    1.0000 </r>
       <r>  -20.8660    1.0000 </r>
       <r>  -20.4110    1.0000 </r>
       <r>  -20.3394    1.0000 </r>
       <r>  -20.1745    1.0000 </r>
       <r>  -20.1505    1.0000 </r>
       <r>  -20.1405    1.0000 </r>
       <r>  -19.5674    1.0000 </r>
       <r>  -18.8264    1.0000 </r>
       <r>  -18.6751    1.0000 </r>
       <r>  -18.3735    1.0000 </r>
       <r>  -18.3483    1.0000 </r>
       <r>  -18.3327    1.0000 </r>
       <r>  -17.9316    1.0000 </r>
       <r>  -17.8036    1.0000 </r>
       <r>  -17.5988    1.0000 </r>
       <r>  -17.2617    1.0000 </r>
       <r>  -17.1524    1.0000 </r>
       <r>  -17.1215    1.0000 </r>
       <r>  -16.5408    1.0000 </r>
       <r>  -16.4360    1.0000 </r>
       <r>  -16.2847    1.0000 </r>
       <r>  -15.8094    1.0000 </r>
       <r>  -15.6295    1.0000 </r>
       <r>  -15.1747    1.0000 </r>
       <r>  -14.9687    1.0000 </r>
       <r>  -14.6522    1.0000 </r>
       <r>  -13.9613    1.0000 </r>
       <r>  -13.9386    1.0000 </r>
       <r>  -13.9253    1.0000 </r>
       <r>  -13.8759    1.0000 </r>
       <r>  -13.8611    1.0000 </r>
       <r>  -13.7931    1.0000 </r>
       <r>  -13.6739    1.0000 </r>
       <r>  -13.4931    1.0000 </r>
       <r>  -13.0386    1.0000 </r>
       <r>  -12.4753    1.0000 </r>
       <r>  -12.2522    1.0000 </r>
       <r>  -12.0699    1.0000 </r>
       <r>  -11.8213    1.0000 </r>
       <r>  -11.7738    1.0000 </r>
       <r>  -11.5634    1.0000 </r>
       <r>  -11.5452    1.0000 </r>
       <r>  -11.5184    1.0000 </r>
       <r>  -10.9322    1.0000 </r>
       <r>  -10.8184    1.0000 </r>
       <r>  -10.5333    1.0000 </r>
       <r>  -10.2070    1.0000 </r>
       <r>  -10.2000    1.0000 </r>
       <r>  -10.1916    1.0000 </r>
       <r>  -10.0937    1.0000 </r>
       <r>  -10.0525    1.0000 </r>
       <r>  -10.0225    1.0000 </r>
       <r>   -9.9020    1.0000 </r>
       <r>   -9.7523    1.0000 </r>
       <r>   -9.7490    1.0000 </r>
       <r>   -9.5645    1.0000 </r>
       <r>   -9.4418    1.0000 </r>
       <r>   -9.4057    1.0000 </r>
       <r>   -9.1996    1.0000 </r>
       <r>   -9.0445    1.0000 </r>
       <r>   -9.0331    1.0000 </r>
       <r>   -8.9002    1.0000 </r>
       <r>   -8.8842    1.0000 </r>
       <r>   -8.6880    1.0000 </r>
       <r>   -8.6375    1.0000 </r>
       <r>   -8.6345    1.0000 </r>
       <r>   -8.6245    1.0000 </r>
       <r>   -8.5830    1.0000 </r>
       <r>   -8.3776    1.0000 </r>
       <r>   -8.2528    1.0000 </r>
       <r>   -8.1628    1.0000 </r>
       <r>   -8.0340    1.0000 </r>
       <r>   -7.9837    1.0000 </r>
       <r>   -7.8819    1.0000 </r>
       <r>   -7.8587    1.0000 </r>
       <r>   -7.8527    1.0000 </r>
       <r>   -7.2199    1.0000 </r>
       <r>   -7.1823    1.0000 </r>
       <r>   -7.1285    1.0000 </r>
       <r>   -6.8895    1.0000 </r>
       <r>   -6.7216    1.0000 </r>
       <r>   -6.6161    1.0000 </r>
       <r>   -6.4535    1.0000 </r>
       <r>   -6.2677    1.0000 </r>
       <r>   -6.1040    1.0000 </r>
       <r>   -5.9168    1.0000 </r>
       <r>   -5.9109    1.0000 </r>
       <r>   -5.8948    1.0000 </r>
       <r>   -5.4524    1.0000 </r>
       <r>   -5.4261    1.0000 </r>
       <r>   -5.1238    1.0000 </r>
       <r>   -5.0158    1.0000 </r>
       <r>   -4.9768    1.0000 </r>
       <r>   -4.9580    1.0000 </r>
       <r>   -3.7318    1.0000 </r>
       <r>   -3.4563    1.0000 </r>
       <r>   -3.2798    1.0000 </r>
       <r>   -2.3880    0.0000 </r>
       <r>   -2.2262    0.0000 </r>
       <r>   -0.9275    0.0000 </r>
       <r>   -0.8815    0.0000 </r>
       <r>   -0.8641    0.0000 </r>
       <r>   -0.5405    0.0000 </r>
       <r>   -0.2615    0.0000 </r>
       <r>   -0.2120    0.0000 </r>
       <r>    0.2481    0.0000 </r>
       <r>    0.2575    0.0000 </r>
       <r>    0.2602    0.0000 </r>
       <r>    0.6029    0.0000 </r>
       <r>    0.7924    0.0000 </r>
       <r>    0.9482    0.0000 </r>
       <r>    0.9730    0.0000 </r>
       <r>    1.0608    0.0000 </r>
       <r>    1.7335    0.0000 </r>
       <r>    1.7457    0.0000 </r>
       <r>    1.7661    0.0000 </r>
       <r>    1.8255    0.0000 </r>
       <r>    2.1199    0.0000 </r>
       <r>    2.1220    0.0000 </r>
       <r>    2.1260    0.0000 </r>
       <r>    2.2458    0.0000 </r>
       <r>    2.2472    0.0000 </r>
       <r>    2.3614    0.0000 </r>
       <r>    2.9994    0.0000 </r>
       <r>    3.0099    0.0000 </r>
       <r>    3.0370    0.0000 </r>
      </set>
     </set>
    </set>
   </array>
  </eigenvalues>
  <separator name="orbital magnetization" >
   <v name="MAGDIPOLOUT">      0.00000000      0.00000000      0.00000000</v>
  </separator>
  <dos>
   <i name="efermi">     -3.01691858 </i>
   <total>
    <array>
     <dimension dim="1">gridpoints</dimension>
     <dimension dim="2">spin</dimension>
     <field>energy</field>
     <field>total</field>
     <field>integrated</field>
     <set>
      <set comment="spin 1">
       <r>   -33.5344     0.0000     0.0000 </r>
       <r>   -33.4027     0.0000     0.0000 </r>
       <r>   -33.2710     0.0000     0.0000 </r>
       <r>   -33.1393     0.0000     0.0000 </r>
       <r>   -33.0076     0.0000     0.0000 </r>
       <r>   -32.8759     0.0000     0.0000 </r>
       <r>   -32.7442     0.0000     0.0000 </r>
       <r>   -32.6126     0.0000     0.0000 </r>
       <r>   -32.4809     0.0000     0.0000 </r>
       <r>   -32.3492     0.0000     0.0000 </r>
       <r>   -32.2175     0.0000     0.0000 </r>
       <r>   -32.0858     0.0000     0.0000 </r>
       <r>   -31.9541     0.0000     0.0000 </r>
       <r>   -31.8224     0.1345     0.0177 </r>
       <r>   -31.6907    13.7158     1.8240 </r>
       <r>   -31.5590     1.3364     2.0000 </r>
       <r>   -31.4273     0.0000     2.0000 </r>
       <r>   -31.2956     0.0000     2.0000 </r>
       <r>   -31.1639     0.0000     2.0000 </r>
       <r>   -31.0322     0.0000     2.0000 </r>
       <r>   -30.9005     0.0000     2.0000 </r>
       <r>   -30.7688     0.0000     2.0000 </r>
       <r>   -30.6371     0.0000     2.0000 </r>
       <r>   -30.5055     0.0000     2.0000 </r>
       <r>   -30.3738     0.0000     2.0000 </r>
       <r>   -30.2421     0.0000     2.0000 </r>
       <r>   -30.1104     0.0000     2.0000 </r>
       <r>   -29.9787     0.0000     2.0000 </r>
       <r>   -29.8470     0.0000     2.0000 </r>
       <r>   -29.7153     0.0000     2.0000 </r>
       <r>   -29.5836     0.0000     2.0000 </r>
       <r>   -29.4519     0.0000     2.0000 </r>
       <r>   -29.3202     0.0000     2.0000 </r>
       <r>   -29.1885     0.0000     2.0000 </r>
       <r>   -29.0568     0.0000     2.0000 </r>
       <r>   -28.9251     0.0000     2.0000 </r>
       <r>   -28.7934     0.0000     2.0000 </r>
       <r>   -28.6617     0.0000     2.0000 </r>
       <r>   -28.5300     0.0000     2.0000 </r>
       <r>   -28.3983     0.0000     2.0000 </r>
       <r>   -28.2667     0.0000     2.0000 </r>
       <r>   -28.1350     0.0000     2.0000 </r>
       <r>   -28.0033     0.0000     2.0000 </r>
       <r>   -27.8716     0.0000     2.0000 </r>
       <r>   -27.7399     0.0000     2.0000 </r>
       <r>   -27.6082     0.0000     2.0000 </r>
       <r>   -27.4765     0.0000     2.0000 </r>
       <r>   -27.3448     0.0000     2.0000 </r>
       <r>   -27.2131     0.0000     2.0000 </r>
       <r>   -27.0814     0.0000     2.0000 </r>
       <r>   -26.9497     0.0000     2.0000 </r>
       <r>   -26.8180     0.0000     2.0000 </r>
       <r>   -26.6863     0.0000     2.0000 </r>
       <r>   -26.5546     0.0000     2.0000 </r>
       <r>   -26.4229     0.0000     2.0000 </r>
       <r>   -26.2912     0.0000     2.0000 </r>
       <r>   -26.1595     0.0000     2.0000 </r>
       <r>   -26.0279     0.0000     2.0000 </r>
       <r>   -25.8962     0.0000     2.0000 </r>
       <r>   -25.7645     0.0000     2.0000 </r>
       <r>   -25.6328     0.0000     2.0000 </r>
       <r>   -25.5011     0.0000     2.0000 </r>
       <r>   -25.3694     0.0000     2.0000 </r>
       <r>   -25.2377     0.0000     2.0000 </r>
       <r>   -25.1060     0.0000     2.0000 </r>
       <r>   -24.9743     0.0000     2.0000 </r>
       <r>   -24.8426     0.0000     2.0000 </r>
       <r>   -24.7109     0.0000     2.0000 </r>
       <r>   -24.5792     0.0000     2.0000 </r>
       <r>   -24.4475     0.0000     2.0000 </r>
       <r>   -24.3158     0.0000     2.0000 </r>
       <r>   -24.1841     0.0000     2.0000 </r>
       <r>   -24.0524     0.0000     2.0000 </r>
       <r>   -23.9208     0.0000     2.0000 </r>
       <r>   -23.7891     0.0000     2.0000 </r>
       <r>   -23.6574     0.0000     2.0000 </r>
       <r>   -23.5257     0.0000     2.0000 </r>
       <r>   -23.3940     0.0000     2.0000 </r>
       <r>   -23.2623     0.0000     2.0000 </r>
       <r>   -23.1306     0.0000     2.0000 </r>
       <r>   -22.9989     0.0000     2.0000 </r>
       <r>   -22.8672     0.0000     2.0000 </r>
       <r>   -22.7355     0.0000     2.0000 </r>
       <r>   -22.6038     0.0000     2.0000 </r>
       <r>   -22.4721     0.0000     2.0000 </r>
       <r>   -22.3404     0.0406     2.0053 </r>
       <r>   -22.2087     4.4348     2.5894 </r>
       <r>   -22.0770     9.1752     3.7977 </r>
       <r>   -21.9453     4.9406     4.4484 </r>
       <r>   -21.8136    10.7520     5.8643 </r>
       <r>   -21.6820     5.5414     6.5941 </r>
       <r>   -21.5503     7.6402     7.6003 </r>
       <r>   -21.4186    12.8217     9.2888 </r>
       <r>   -21.2869     5.3962     9.9994 </r>
       <r>   -21.1552     3.8480    10.5062 </r>
       <r>   -21.0235     9.1861    11.7160 </r>
       <r>   -20.8918    10.8021    13.1385 </r>
       <r>   -20.7601     9.9678    14.4512 </r>
       <r>   -20.6284     8.3580    15.5519 </r>
       <r>   -20.4967     0.2066    15.5791 </r>
       <r>   -20.3650    13.1766    17.3144 </r>
       <r>   -20.2333     3.9319    17.8322 </r>
       <r>   -20.1016    18.5591    20.2763 </r>
       <r>   -19.9699     1.2901    20.4462 </r>
       <r>   -19.8382     3.6368    20.9252 </r>
       <r>   -19.7065    14.0209    22.7717 </r>
       <r>   -19.5749     8.3983    23.8777 </r>
       <r>   -19.4432     5.9845    24.6658 </r>
       <r>   -19.3115     6.8688    25.5704 </r>
       <r>   -19.1798    14.0500    27.4207 </r>
       <r>   -19.0481     7.5914    28.4204 </r>
       <r>   -18.9164     4.7295    29.0433 </r>
       <r>   -18.7847     5.1769    29.7250 </r>
       <r>   -18.6530     5.3215    30.4258 </r>
       <r>   -18.5213    13.7989    32.2431 </r>
       <r>   -18.3896    11.3809    33.7419 </r>
       <r>   -18.2579     8.6326    34.8787 </r>
       <r>   -18.1262     4.9444    35.5299 </r>
       <r>   -17.9945    15.2128    37.5333 </r>
       <r>   -17.8628     4.8222    38.1684 </r>
       <r>   -17.7311     3.7160    38.6578 </r>
       <r>   -17.5994     5.9229    39.4378 </r>
       <r>   -17.4677    15.7683    41.5144 </r>
       <r>   -17.3361     4.0599    42.0490 </r>
       <r>   -17.2044    21.4070    44.8682 </r>
       <r>   -17.0727     6.8244    45.7669 </r>
       <r>   -16.9410     3.4735    46.2244 </r>
       <r>   -16.8093     8.9254    47.3998 </r>
       <r>   -16.6776     4.0092    47.9278 </r>
       <r>   -16.5459     8.8474    49.0929 </r>
       <r>   -16.4142     8.9448    50.2709 </r>
       <r>   -16.2825     3.1014    50.6793 </r>
       <r>   -16.1508     9.2694    51.9001 </r>
       <r>   -16.0191     5.9708    52.6864 </r>
       <r>   -15.8874    12.9517    54.3921 </r>
       <r>   -15.7557    11.9432    55.9649 </r>
       <r>   -15.6240     2.1604    56.2494 </r>
       <r>   -15.4923     4.2580    56.8102 </r>
       <r>   -15.3606     2.6680    57.1615 </r>
       <r>   -15.2289    10.1885    58.5033 </r>
       <r>   -15.0973    22.1226    61.4167 </r>
       <r>   -14.9656     4.6637    62.0309 </r>
       <r>   -14.8339    11.4874    63.5437 </r>
       <r>   -14.7022    10.4093    64.9146 </r>
       <r>   -14.5705     6.3985    65.7572 </r>
       <r>   -14.4388    15.9040    67.8517 </r>
       <r>   -14.3071     4.5011    68.4444 </r>
       <r>   -14.1754     1.0428    68.5818 </r>
       <r>   -14.0437     4.0772    69.1187 </r>
       <r>   -13.9120    10.2017    70.4622 </r>
       <r>   -13.7803    17.0179    72.7033 </r>
       <r>   -13.6486    17.4689    75.0039 </r>
       <r>   -13.5169     1.6570    75.2221 </r>
       <r>   -13.3852     2.5281    75.5550 </r>
       <r>   -13.2535     0.5142    75.6228 </r>
       <r>   -13.1218    11.1258    77.0880 </r>
       <r>   -12.9902    14.0629    78.9400 </r>
       <r>   -12.8585    20.3458    81.6194 </r>
       <r>   -12.7268     1.2030    81.7778 </r>
       <r>   -12.5951     4.7636    82.4052 </r>
       <r>   -12.4634    17.7222    84.7391 </r>
       <r>   -12.3317    10.7798    86.1587 </r>
       <r>   -12.2000     3.6217    86.6356 </r>
       <r>   -12.0683     3.2202    87.0597 </r>
       <r>   -11.9366    12.1192    88.6558 </r>
       <r>   -11.8049     3.6471    89.1361 </r>
       <r>   -11.6732    16.2942    91.2819 </r>
       <r>   -11.5415    17.3951    93.5727 </r>
       <r>   -11.4098    13.6083    95.3649 </r>
       <r>   -11.2781     8.3712    96.4673 </r>
       <r>   -11.1464     5.5134    97.1934 </r>
       <r>   -11.0147     7.8502    98.2272 </r>
       <r>   -10.8830    13.0752    99.9491 </r>
       <r>   -10.7514    16.8543   102.1687 </r>
       <r>   -10.6197     2.2272   102.4620 </r>
       <r>   -10.4880    20.5209   105.1645 </r>
       <r>   -10.3563     3.7092   105.6530 </r>
       <r>   -10.2246    24.5548   108.8867 </r>
       <r>   -10.0929    25.4032   112.2322 </r>
       <r>    -9.9612    18.4260   114.6588 </r>
       <r>    -9.8295    15.1102   116.6487 </r>
       <r>    -9.6978    17.2409   118.9192 </r>
       <r>    -9.5661    28.0565   122.6141 </r>
       <r>    -9.4344    20.3141   125.2893 </r>
       <r>    -9.3027    27.4408   128.9031 </r>
       <r>    -9.1710    23.3496   131.9781 </r>
       <r>    -9.0393    28.8544   135.7781 </r>
       <r>    -8.9076    20.0520   138.4188 </r>
       <r>    -8.7759    17.4116   140.7118 </r>
       <r>    -8.6442    23.6311   143.8239 </r>
       <r>    -8.5126    17.2059   146.0898 </r>
       <r>    -8.3809    16.6856   148.2872 </r>
       <r>    -8.2492    15.1325   150.2800 </r>
       <r>    -8.1175    15.9234   152.3771 </r>
       <r>    -7.9858    29.0568   156.2037 </r>
       <r>    -7.8541    15.8443   158.2903 </r>
       <r>    -7.7224    16.2389   160.4288 </r>
       <r>    -7.5907     8.1530   161.5025 </r>
       <r>    -7.4590     2.1208   161.7818 </r>
       <r>    -7.3273    18.0298   164.1562 </r>
       <r>    -7.1956    32.0874   168.3819 </r>
       <r>    -7.0639    15.5251   170.4265 </r>
       <r>    -6.9322     4.6983   171.0452 </r>
       <r>    -6.8005    19.0344   173.5520 </r>
       <r>    -6.6688    12.8720   175.2471 </r>
       <r>    -6.5371    15.8834   177.3389 </r>
       <r>    -6.4055     6.9238   178.2507 </r>
       <r>    -6.2738    12.6677   179.9189 </r>
       <r>    -6.1421    15.3076   181.9349 </r>
       <r>    -6.0104    13.6950   183.7384 </r>
       <r>    -5.8787    20.2318   186.4028 </r>
       <r>    -5.7470     7.8577   187.4376 </r>
       <r>    -5.6153    13.5960   189.2281 </r>
       <r>    -5.4836     3.2992   189.6626 </r>
       <r>    -5.3519     8.0180   190.7185 </r>
       <r>    -5.2202     8.4562   191.8322 </r>
       <r>    -5.0885    11.9812   193.4100 </r>
       <r>    -4.9568    18.3990   195.8331 </r>
       <r>    -4.8251    14.8737   197.7918 </r>
       <r>    -4.6934     3.1863   198.2115 </r>
       <r>    -4.5617     0.0817   198.2222 </r>
       <r>    -4.4300     0.0000   198.2222 </r>
       <r>    -4.2983     3.1258   198.6339 </r>
       <r>    -4.1667    17.0740   200.8824 </r>
       <r>    -4.0350     5.1103   201.5554 </r>
       <r>    -3.9033     0.0010   201.5556 </r>
       <r>    -3.7716     0.4390   201.6134 </r>
       <r>    -3.6399     2.9200   201.9979 </r>
       <r>    -3.5082     0.2559   202.0316 </r>
       <r>    -3.3765     4.3772   202.6081 </r>
       <r>    -3.2448    12.3348   204.2325 </r>
       <r>    -3.1131    10.8553   205.6621 </r>
       <r>    -2.9814     2.6197   206.0071 </r>
       <r>    -2.8497     2.5934   206.3486 </r>
       <r>    -2.7180     9.0909   207.5458 </r>
       <r>    -2.5863     0.0739   207.5556 </r>
       <r>    -2.4546     0.1003   207.5688 </r>
       <r>    -2.3229     3.1740   207.9868 </r>
       <r>    -2.1912     2.9297   208.3726 </r>
       <r>    -2.0596     0.5456   208.4444 </r>
       <r>    -1.9279     0.0000   208.4444 </r>
       <r>    -1.7962     0.0000   208.4444 </r>
       <r>    -1.6645     0.2318   208.4750 </r>
       <r>    -1.5328     9.5676   209.7350 </r>
       <r>    -1.4011    12.5186   211.3836 </r>
       <r>    -1.2694     2.9930   211.7778 </r>
       <r>    -1.1377     0.0001   211.7778 </r>
       <r>    -1.0060     1.1339   211.9271 </r>
       <r>    -0.8743    10.8697   213.3586 </r>
       <r>    -0.7426    23.0803   216.3981 </r>
       <r>    -0.6109    18.4403   218.8266 </r>
       <r>    -0.4792     5.3326   219.5289 </r>
       <r>    -0.3475     0.2281   219.5589 </r>
       <r>    -0.2158     4.6312   220.1688 </r>
       <r>    -0.0841    11.3402   221.6622 </r>
       <r>     0.0476    10.3510   223.0254 </r>
       <r>     0.1792     0.8265   223.1343 </r>
       <r>     0.3109    16.3793   225.2913 </r>
       <r>     0.4426     7.4719   226.2753 </r>
       <r>     0.5743     3.0713   226.6798 </r>
       <r>     0.7060    11.3882   228.1795 </r>
       <r>     0.8377    16.5271   230.3561 </r>
       <r>     0.9694     6.3735   231.1954 </r>
       <r>     1.1011    11.1264   232.6607 </r>
       <r>     1.2328    14.7829   234.6075 </r>
       <r>     1.3645     8.2978   235.7003 </r>
       <r>     1.4962    15.0959   237.6883 </r>
       <r>     1.6279    23.0299   240.7212 </r>
       <r>     1.7596    15.5180   242.7649 </r>
       <r>     1.8913    27.4398   246.3785 </r>
       <r>     2.0230     8.3311   247.4757 </r>
       <r>     2.1547    16.2528   249.6161 </r>
       <r>     2.2864    26.1010   253.0534 </r>
       <r>     2.4180    28.7627   256.8413 </r>
       <r>     2.5497     7.2233   257.7926 </r>
       <r>     2.6814     6.2938   258.6214 </r>
       <r>     2.8131     9.1544   259.8270 </r>
       <r>     2.9448     5.0127   260.4871 </r>
       <r>     3.0765     9.2055   261.6995 </r>
       <r>     3.2082     2.8070   262.0691 </r>
       <r>     3.3399     4.5114   262.6632 </r>
       <r>     3.4716     0.0270   262.6668 </r>
       <r>     3.6033     3.3784   263.1117 </r>
       <r>     3.7350     3.3694   263.5554 </r>
       <r>     3.8667     0.0010   263.5556 </r>
       <r>     3.9984     0.0000   263.5556 </r>
       <r>     4.1301     0.2963   263.5946 </r>
       <r>     4.2618     3.0486   263.9961 </r>
       <r>     4.3935     0.0300   264.0000 </r>
       <r>     4.5251     0.0000   264.0000 </r>
       <r>     4.6568     0.0000   264.0000 </r>
       <r>     4.7885     0.0000   264.0000 </r>
       <r>     4.9202     0.0000   264.0000 </r>
       <r>     5.0519     0.0000   264.0000 </r>
       <r>     5.1836     0.0000   264.0000 </r>
       <r>     5.3153     0.0000   264.0000 </r>
       <r>     5.4470     0.0000   264.0000 </r>
       <r>     5.5787     0.0000   264.0000 </r>
       <r>     5.7104     0.0000   264.0000 </r>
       <r>     5.8421     0.0000   264.0000 </r>
       <r>     5.9738     0.0000   264.0000 </r>
      </set>
     </set>
    </array>
   </total>
  </dos>
 </calculation>
 <structure name="finalpos" >
  <crystal>
   <varray name="basis" >
    <v>      12.30000019       0.00000000       0.00000000 </v>
    <v>       6.15000080      10.65211222       0.00000000 </v>
    <v>       0.00000000       0.00000000      20.00000000 </v>
   </varray>
   <i name="volume">   2620.41964732 </i>
   <varray name="rec_basis" >
    <v>       0.08130081      -0.04693905       0.00000000 </v>
    <v>       0.00000000       0.09387809       0.00000000 </v>
    <v>       0.00000000       0.00000000       0.05000000 </v>
   </varray>
  </crystal>
  <varray name="positions" >
   <v>       0.00000000       0.00000000       0.41799748 </v>
   <v>       0.20000000       0.00000000       0.41799748 </v>
   <v>       0.40081301       0.00000000       0.41799748 </v>
   <v>       0.60000000       0.00000000       0.41799748 </v>
   <v>       0.80000000       0.00000000       0.41799748 </v>
   <v>       0.00000000       0.20000000       0.41799748 </v>
   <v>       0.20000000       0.20000000       0.41799748 </v>
   <v>       0.40000000       0.20000000       0.41799748 </v>
   <v>       0.60000000       0.20000000       0.41799748 </v>
   <v>       0.80000000       0.20000000       0.41799748 </v>
   <v>       0.00000000       0.40000000       0.41799748 </v>
   <v>       0.20000000       0.40000000       0.41799748 </v>
   <v>       0.40000000       0.40000000       0.41799748 </v>
   <v>       0.60000000       0.40000000       0.41799748 </v>
   <v>       0.80000000       0.40000000       0.41799748 </v>
   <v>       0.00000000       0.60000000       0.41799748 </v>
   <v>       0.20000000       0.60000000       0.41799748 </v>
   <v>       0.40000000       0.60000000       0.41799748 </v>
   <v>       0.60000000       0.60000000       0.41799748 </v>
   <v>       0.80000000       0.60000000       0.41799748 </v>
   <v>       0.00000000       0.80000000       0.41799748 </v>
   <v>       0.20000000       0.80000000       0.41799748 </v>
   <v>       0.40000000       0.80000000       0.41799748 </v>
   <v>       0.60000000       0.80000000       0.41799748 </v>
   <v>       0.80000000       0.80000000       0.41799748 </v>
   <v>       0.06666667       0.06666660       0.41800609 </v>
   <v>       0.26666667       0.06666660       0.41800609 </v>
   <v>       0.46666667       0.06666660       0.41800609 </v>
   <v>       0.66666667       0.06666660       0.41800609 </v>
   <v>       0.86666667       0.06666660       0.41800609 </v>
   <v>       0.06666667       0.26666660       0.41800609 </v>
   <v>       0.26666667       0.26666660       0.41800609 </v>
   <v>       0.46666667       0.26666660       0.41800609 </v>
   <v>       0.66666667       0.26666660       0.41800609 </v>
   <v>       0.86666667       0.26666660       0.41800609 </v>
   <v>       0.06666667       0.46666660       0.41800609 </v>
   <v>       0.26666667       0.46666660       0.41800609 </v>
   <v>       0.46666667       0.46666660       0.41800609 </v>
   <v>       0.66666667       0.46666660       0.41800609 </v>
   <v>       0.86666667       0.46666660       0.41800609 </v>
   <v>       0.06666667       0.66666660       0.41800609 </v>
   <v>       0.26666667       0.66666660       0.41800609 </v>
   <v>       0.46666667       0.66666660       0.41800609 </v>
   <v>       0.66666667       0.66666660       0.41800609 </v>
   <v>       0.86666667       0.66666660       0.41800609 </v>
   <v>       0.06666667       0.86666660       0.41800609 </v>
   <v>       0.26666667       0.86666660       0.41800609 </v>
   <v>       0.46666667       0.86666660       0.41800609 </v>
   <v>       0.66666667       0.86666660       0.41800609 </v>
   <v>       0.86666667       0.86666660       0.41800609 </v>
   <v>       0.40000000       0.40000000       0.46800609 </v>
  </varray>
  <varray name="velocities" >
   <v>       0.00000000       0.00000000       0.00000000 </v>
   <v>       0.00000000       0.00000000       0.00000000 </v>
   <v>       0.00000000       0.00000000       0.00000000 </v>
   <v>       0.00000000       0.00000000       0.00000000 </v>
   <v>       0.00000000       0.00000000       0.00000000 </v>
   <v>       0.00000000       0.00000000       0.00000000 </v>
   <v>       0.00000000       0.00000000       0.00000000 </v>
   <v>       0.00000000       0.00000000       0.00000000 </v>
   <v>       0.00000000       0.00000000       0.00000000 </v>
   <v>       0.00000000       0.00000000       0.00000000 </v>
   <v>       0.00000000       0.00000000       0.00000000 </v>
   <v>       0.00000000       0.00000000       0.00000000 </v>
   <v>       0.00000000       0.00000000       0.00000000 </v>
   <v>       0.00000000       0.00000000       0.00000000 </v>
   <v>       0.00000000       0.00000000       0.00000000 </v>
   <v>       0.00000000       0.00000000       0.00000000 </v>
   <v>       0.00000000       0.00000000       0.00000000 </v>
   <v>       0.00000000       0.00000000       0.00000000 </v>
   <v>       0.00000000       0.00000000       0.00000000 </v>
   <v>       0.00000000       0.00000000       0.00000000 </v>
   <v>       0.00000000       0.00000000       0.00000000 </v>
   <v>       0.00000000       0.00000000       0.00000000 </v>
   <v>       0.00000000       0.00000000       0.00000000 </v>
   <v>       0.00000000       0.00000000       0.00000000 </v>
   <v>       0.00000000       0.00000000       0.00000000 </v>
   <v>       0.00000000       0.00000000       0.00000000 </v>
   <v>       0.00000000       0.00000000       0.00000000 </v>
   <v>       0.00000000       0.00000000       0.00000000 </v>
   <v>       0.00000000       0.00000000       0.00000000 </v>
   <v>       0.00000000       0.00000000       0.00000000 </v>
   <v>       0.00000000       0.00000000       0.00000000 </v>
   <v>       0.00000000       0.00000000       0.00000000 </v>
   <v>       0.00000000       0.00000000       0.00000000 </v>
   <v>       0.00000000       0.00000000       0.00000000 </v>
   <v>       0.00000000       0.00000000       0.00000000 </v>
   <v>       0.00000000       0.00000000       0.00000000 </v>
   <v>       0.00000000       0.00000000       0.00000000 </v>
   <v>       0.00000000       0.00000000       0.00000000 </v>
   <v>       0.00000000       0.00000000       0.00000000 </v>
   <v>       0.00000000       0.00000000       0.00000000 </v>
   <v>       0.00000000       0.00000000       0.00000000 </v>
   <v>       0.00000000       0.00000000       0.00000000 </v>
   <v>       0.00000000       0.00000000       0.00000000 </v>
   <v>       0.00000000       0.00000000       0.00000000 </v>
   <v>       0.00000000       0.00000000       0.00000000 </v>
   <v>       0.00000000       0.00000000       0.00000000 </v>
   <v>       0.00000000       0.00000000       0.00000000 </v>
   <v>       0.00000000       0.00000000       0.00000000 </v>
   <v>       0.00000000       0.00000000       0.00000000 </v>
   <v>       0.00000000       0.00000000       0.00000000 </v>
   <v>       0.00000000       0.00000000       0.00000000 </v>
  </varray>
 </structure>
</modeling>
