 vasp.5.4.4.18Apr17-6-g9f103f2a35 (build Aug 02 2018 15:13:56) complex          
  
 executed on             LinuxIFC date 2020.05.31  10:46:33
 running on    4 total cores
 distrk:  each k-point on    4 cores,    1 groups
 distr:  one band on NCORES_PER_BAND=   1 cores,    4 groups


--------------------------------------------------------------------------------------------------------


 INCAR:
 POTCAR:    PAW C                                 
 POTCAR:    PAW C                                 
   VRHFIN =C: s2p2                                                              
   LEXCH  = CA                                                                  
   EATOM  =   146.6877 eV,   10.7812 Ry                                         
                                                                                
   TITEL  = PAW C                                                               
   LULTRA =        F    use ultrasoft PP ?                                      
   IUNSCR =        0    unscreen: 0-lin 1-nonlin 2-no                           
   RPACOR =     .000    partial core radius                                     
   POMASS =   12.011; ZVAL   =    4.000    mass and valenz                      
   RCORE  =    1.500    outmost cutoff radius                                   
   RWIGS  =    1.630; RWIGS  =     .863    wigner-seitz radius (au A)           
   ENMAX  =  400.000; ENMIN  =  300.000 eV                                      
   ICORE  =        2    local potential                                         
   LCOR   =        T    correct aug charges                                     
   LPAW   =        T    paw PP                                                  
   EAUG   =  644.873                                                            
   DEXC   =     .000                                                            
   RMAX   =    2.266    core radius for proj-oper                               
   RAUG   =    1.300    factor for augmentation sphere                          
   RDEP   =    1.501    radius for radial grids                                 
   RDEPT  =    1.300    core radius for aug-charge                              
   QCUT   =   -5.516; QGAM   =   11.032    optimization parameters              
                                                                                
   Description                                                                  
     l     E      TYP  RCUT    TYP  RCUT                                        
     0   .000     23  1.200                                                     
     0   .000     23  1.200                                                     
     1   .000     23  1.500                                                     
     1  2.500     23  1.500                                                     
     2   .000      7  1.500                                                     
  local pseudopotential read in
  atomic valenz-charges read in
  non local Contribution for L=           0  read in
    real space projection operators read in
  non local Contribution for L=           0  read in
    real space projection operators read in
  non local Contribution for L=           1  read in
    real space projection operators read in
  non local Contribution for L=           1  read in
    real space projection operators read in
    PAW grid and wavefunctions read in
 
   number of l-projection  operators is LMAX  =           4
   number of lm-projection operators is LMMAX =           8
 
 Optimization of the real space projectors (new method)

 maximal supplied QI-value         = 25.13
 optimisation between [QCUT,QGAM] = [ 10.05, 20.36] = [ 28.30,116.06] Ry 
 Optimized for a Real-space Cutoff    1.30 Angstroem

   l    n(q)    QCUT    max X(q) W(low)/X(q) W(high)/X(q)  e(spline) 
   0      8    10.053     5.578    0.40E-04    0.40E-04    0.54E-07
   0      8    10.053    68.427    0.49E-03    0.71E-03    0.18E-06
   1      7    10.053     2.787    0.79E-04    0.12E-03    0.94E-07
   1      7    10.053     4.374    0.25E-03    0.19E-03    0.21E-06
  PAW C                                 :
 energy of atom  1       EATOM= -146.6877
 kinetic energy error for atom=    0.0289 (will be added to EATOM!!)
 
 
 POSCAR: supercell                               
  positions in direct lattice
  No initial velocities read in
 exchange correlation table for  LEXCH =        2
   RHO(1)=    0.500       N(1)  =     2000
   RHO(2)=  100.500       N(2)  =     4000

 VTST: version 3.1, (03/28/14)

 CHAIN: initializing optimizer
 
 OPT: Using VASP Dynamics algorithm
 CHAIN: Read ICHAIN            0
 
 POSCAR: supercell                               
  positions in direct lattice
  No initial velocities read in
 


--------------------------------------------------------------------------------------------------------


 ion  position               nearest neighbor table
   1  0.000  0.000  0.500-  26 1.42  49 1.42  30 1.42
   2  0.200  0.000  0.500-  27 1.42  45 1.42  26 1.42
   3  0.400  0.000  0.500-  27 1.42  28 1.42  46 1.42
   4  0.600  0.000  0.500-  29 1.42  47 1.42  28 1.42
   5  0.800  0.000  0.500-  29 1.42  30 1.42  48 1.42
   6  0.000  0.200  0.500-  34 1.42  30 1.42  31 1.42
   7  0.200  0.200  0.500-  31 1.42  26 1.42
   8  0.400  0.200  0.500-  27 1.42  32 1.42
   9  0.600  0.200  0.500-  32 1.42  28 1.42  33 1.42
  10  0.800  0.200  0.500-  33 1.42  29 1.42  34 1.42
  11  0.000  0.400  0.500-  34 1.42  35 1.42  39 1.42
  12  0.200  0.400  0.500-  31 1.42  36 1.42  35 1.42
  13  0.400  0.400  0.500-  36 1.42  37 1.42
  14  0.600  0.400  0.500-  32 1.42  38 1.42  37 1.42
  15  0.800  0.400  0.500-  38 1.42  33 1.42  39 1.42
  16  0.000  0.600  0.500-  44 1.42  39 1.42  40 1.42
  17  0.200  0.600  0.500-  40 1.42  35 1.42  41 1.42
  18  0.400  0.600  0.500-  41 1.42  36 1.42  42 1.42
  19  0.600  0.600  0.500-  42 1.42  37 1.42  43 1.42
  20  0.800  0.600  0.500-  43 1.42  38 1.42  44 1.42
  21  0.000  0.800  0.500-  44 1.42  45 1.42  49 1.42
  22  0.200  0.800  0.500-  40 1.42  46 1.42  45 1.42
  23  0.400  0.800  0.500-  46 1.42  41 1.42  47 1.42
  24  0.600  0.800  0.500-  42 1.42  48 1.42  47 1.42
  25  0.800  0.800  0.500-  48 1.42  43 1.42  49 1.42
  26  0.133  0.067  0.500-   1 1.42   7 1.42   2 1.42
  27  0.333  0.067  0.500-   3 1.42   2 1.42   8 1.42
  28  0.533  0.067  0.500-   3 1.42   9 1.42   4 1.42
  29  0.733  0.067  0.500-   5 1.42   4 1.42  10 1.42
  30  0.933  0.067  0.500-   5 1.42   6 1.42   1 1.42
  31  0.133  0.267  0.500-   7 1.42  12 1.42   6 1.42
  32  0.533  0.267  0.500-   9 1.42  14 1.42   8 1.42
  33  0.733  0.267  0.500-  10 1.42  15 1.42   9 1.42
  34  0.933  0.267  0.500-   6 1.42  11 1.42  10 1.42
  35  0.133  0.467  0.500-  11 1.42  17 1.42  12 1.42
  36  0.333  0.467  0.500-  13 1.42  12 1.42  18 1.42
  37  0.533  0.467  0.500-  13 1.42  19 1.42  14 1.42
  38  0.733  0.467  0.500-  15 1.42  14 1.42  20 1.42
  39  0.933  0.467  0.500-  15 1.42  16 1.42  11 1.42
  40  0.133  0.667  0.500-  17 1.42  22 1.42  16 1.42
  41  0.333  0.667  0.500-  18 1.42  23 1.42  17 1.42
  42  0.533  0.667  0.500-  19 1.42  24 1.42  18 1.42
  43  0.733  0.667  0.500-  20 1.42  25 1.42  19 1.42
  44  0.933  0.667  0.500-  16 1.42  21 1.42  20 1.42
  45  0.133  0.867  0.500-   2 1.42  21 1.42  22 1.42
  46  0.333  0.867  0.500-  23 1.42  22 1.42   3 1.42
  47  0.533  0.867  0.500-   4 1.42  23 1.42  24 1.42
  48  0.733  0.867  0.500-  25 1.42  24 1.42   5 1.42
  49  0.933  0.867  0.500-   1 1.42  25 1.42  21 1.42
 
  LATTYP: Found a hexagonal cell.
 ALAT       =    12.3000000000
 C/A-ratio  =     0.8130081301
  
  Lattice vectors:
  
 A1 = (  12.3000000000,   0.0000000000,   0.0000000000)
 A2 = (  -6.1500000000,  10.6521124665,   0.0000000000)
 A3 = (   0.0000000000,   0.0000000000,  10.0000000000)


Analysis of symmetry for initial positions (statically):
=====================================================================
 Subroutine PRICEL returns:
 Original cell was already a primitive cell.
 

 Routine SETGRP: Setting up the symmetry group for a 
 hexagonal supercell.


 Subroutine GETGRP returns: Found 12 space group operations
 (whereof  2 operations were pure point group operations)
 out of a pool of 24 trial point group operations.


The static configuration has the point symmetry C_1h.
 The point group associated with its full space group is D_3h.


Analysis of symmetry for dynamics (positions and initial velocities):
=====================================================================
 Subroutine PRICEL returns:
 Original cell was already a primitive cell.
 

 Routine SETGRP: Setting up the symmetry group for a 
 hexagonal supercell.


 Subroutine GETGRP returns: Found 12 space group operations
 (whereof  2 operations were pure point group operations)
 out of a pool of 24 trial point group operations.


The dynamic configuration has the point symmetry C_1h.
 The point group associated with its full space group is D_3h.


 Subroutine INISYM returns: Found 12 space group operations
 (whereof  2 operations are pure point group operations),
 and found     1 'primitive' translations

 
 
 KPOINTS: KPOINT_file_2                           
  k-points in reciprocal lattice
Space group operators:
 irot       det(A)        alpha          n_x          n_y          n_z        tau_x        tau_y        tau_z
    1     1.000000     0.000000     1.000000     0.000000     0.000000     0.000000     0.000000     0.000000
    2    -1.000000   180.000000     0.000000     0.000000     1.000000     0.000000     0.000000     0.000000
    3    -1.000000    60.000000     0.000000     0.000000    -1.000000     0.400000     0.600000     0.000000
    4     1.000000   120.000000     0.000000     0.000000    -1.000000     0.600000     0.200000     0.000000
    5     1.000000   120.000000     0.000000     0.000000     1.000000     0.400000     0.600000     0.000000
    6    -1.000000    60.000000     0.000000     0.000000     1.000000     0.600000     0.200000     0.000000
    7    -1.000000   180.000000     1.000000     0.000000     0.000000     0.400000     0.000000     0.000000
    8     1.000000   180.000000     0.866025    -0.500000     0.000000     0.600000     0.600000     0.000000
    9    -1.000000   180.000000     0.500000    -0.866025     0.000000     0.000000     0.200000     0.000000
   10     1.000000   180.000000     0.000000     1.000000     0.000000     0.400000     0.000000     0.000000
   11    -1.000000   180.000000    -0.500000    -0.866025     0.000000     0.600000     0.600000     0.000000
   12     1.000000   180.000000     0.866025     0.500000     0.000000     0.000000     0.200000     0.000000


--------------------------------------------------------------------------------------------------------




 Dimension of arrays:
   k-points           NKPTS =     51   k-points in BZ     NKDIM =     51   number of bands    NBANDS=    124
   number of dos      NEDOS =    301   number of ions     NIONS =     49
   non local maximal  LDIM  =      4   non local SUM 2l+1 LMDIM =      8
   total plane-waves  NPLWV = 180000
   max r-space proj   IRMAX =   1318   max aug-charges    IRDMAX=   1821
   dimension x,y,z NGX =    60 NGY =   60 NGZ =   50
   dimension x,y,z NGXF=   120 NGYF=  120 NGZF=  100
   support grid    NGXF=   120 NGYF=  120 NGZF=  100
   ions per type =              49
   NGX,Y,Z   is equivalent  to a cutoff of   8.11,  8.11,  8.31 a.u.
   NGXF,Y,Z  is equivalent  to a cutoff of  16.22, 16.22, 16.62 a.u.

 SYSTEM =  vasp                                    
 POSCAR =  supercell                               

 Startparameter for this run:
   NWRITE =      2    write-flag & timer
   PREC   = normal    normal or accurate (medium, high low for compatibility)
   ISTART =      0    job   : 0-new  1-cont  2-samecut
   ICHARG =     11    charge: 1-file 2-atom 10-const
   ISPIN  =      1    spin polarized calculation?
   LNONCOLLINEAR =      F non collinear calculations
   LSORBIT =      F    spin-orbit coupling
   INIWAV =      1    electr: 0-lowe 1-rand  2-diag
   LASPH  =      F    aspherical Exc in radial PAW
   METAGGA=      F    non-selfconsistent MetaGGA calc.

 Electronic Relaxation 1
   ENCUT  =  400.0 eV  29.40 Ry    5.42 a.u.  20.06 20.06 16.31*2*pi/ulx,y,z
   ENINI  =  400.0     initial cutoff
   ENAUG  =  644.9 eV  augmentation charge cutoff
   NELM   =    200;   NELMIN=  2; NELMDL= -5     # of ELM steps 
   EDIFF  = 0.1E-05   stopping-criterion for ELM
   LREAL  =      T    real-space projection
   NLSPLINE    = F    spline interpolate recip. space projectors
   LCOMPAT=      F    compatible to vasp.4.4
   GGA_COMPAT  = T    GGA compatible to vasp.4.4-vasp.4.6
   LMAXPAW     = -100 max onsite density
   LMAXMIX     =    2 max onsite mixed and CHGCAR
   VOSKOWN=      0    Vosko Wilk Nusair interpolation
   ROPT   =   -0.00050
 Ionic relaxation
   EDIFFG = 0.1E-04   stopping-criterion for IOM
   NSW    =      0    number of steps for IOM
   NBLOCK =      1;   KBLOCK =      1    inner block; outer block 
   IBRION =     -1    ionic relax: 0-MD 1-quasi-New 2-CG
   NFREE  =      0    steps in history (QN), initial steepest desc. (CG)
   ISIF   =      2    stress and relaxation
   IWAVPR =     10    prediction:  0-non 1-charg 2-wave 3-comb
   ISYM   =      2    0-nonsym 1-usesym 2-fastsym
   LCORR  =      T    Harris-Foulkes like correction to forces

   POTIM  = 0.5000    time-step for ionic-motion
   TEIN   =    0.0    initial temperature
   TEBEG  =    0.0;   TEEND  =   0.0 temperature during run
   SMASS  =  -3.00    Nose mass-parameter (am)
   estimated Nose-frequenzy (Omega)   =  0.10E-29 period in steps =****** mass=  -0.346E-26a.u.
   SCALEE = 1.0000    scale energy and forces
   NPACO  =    256;   APACO  = 16.0  distance and # of slots for P.C.
   PSTRESS=    0.0 pullay stress

  Mass of Ions in am
   POMASS =  12.01
  Ionic Valenz
   ZVAL   =   4.00
  Atomic Wigner-Seitz radii
   RWIGS  =  -1.00
  virtual crystal weights 
   VCA    =   1.00
   NELECT =     196.0000    total number of electrons
   NUPDOWN=      -1.0000    fix difference up-down

 DOS related values:
   EMIN   =  10.00;   EMAX   =-10.00  energy-range for DOS
   EFERMI =   0.00
   ISMEAR =    -1;   SIGMA  =   0.02  broadening in eV -4-tet -1-fermi 0-gaus

 Electronic relaxation 2 (details)
   IALGO  =     68    algorithm
   LDIAG  =      T    sub-space diagonalisation (order eigenvalues)
   LSUBROT=      F    optimize rotation matrix (better conditioning)
   TURBO    =      0    0=normal 1=particle mesh
   IRESTART =      0    0=no restart 2=restart with 2 vectors
   NREBOOT  =      0    no. of reboots
   NMIN     =      0    reboot dimension
   EREF     =   0.00    reference energy to select bands
   IMIX   =      4    mixing-type and parameters
     AMIX     =   0.40;   BMIX     =  1.00
     AMIX_MAG =   1.60;   BMIX_MAG =  1.00
     AMIN     =   0.10
     WC   =   100.;   INIMIX=   1;  MIXPRE=   1;  MAXMIX= -45

 Intra band minimization:
   WEIMIN = 0.0000     energy-eigenvalue tresh-hold
   EBREAK =  0.20E-08  absolut break condition
   DEPER  =   0.30     relativ break condition  

   TIME   =   0.40     timestep for ELM

  volume/ion in A,a.u.               =      26.74       180.44
  Fermi-wavevector in a.u.,A,eV,Ry     =   0.869054  1.642273 10.275857  0.755254
  Thomas-Fermi vector in A             =   1.987821
 
 Write flags
   LWAVE        =      T    write WAVECAR
   LDOWNSAMPLE  =      F    k-point downsampling of WAVECAR
   LCHARG       =      F    write CHGCAR
   LVTOT        =      F    write LOCPOT, total local potential
   LVHAR        =      F    write LOCPOT, Hartree potential only
   LELF         =      F    write electronic localiz. function (ELF)
   LORBIT       =      0    0 simple, 1 ext, 2 COOP (PROOUT), +10 PAW based schemes


 Dipole corrections
   LMONO  =      F    monopole corrections only (constant potential shift)
   LDIPOL =      F    correct potential (dipole corrections)
   IDIPOL =      0    1-x, 2-y, 3-z, 4-all directions 
   EPSILON=  1.0000000 bulk dielectric constant

 Exchange correlation treatment:
   GGA     =    --    GGA type
   LEXCH   =     2    internal setting for exchange type
   VOSKOWN=      0    Vosko Wilk Nusair interpolation
   LHFCALC =     F    Hartree Fock is set to
   LHFONE  =     F    Hartree Fock one center treatment
   AEXX    =    0.0000 exact exchange contribution

 Linear response parameters
   LEPSILON=     F    determine dielectric tensor
   LRPA    =     F    only Hartree local field effects (RPA)
   LNABLA  =     F    use nabla operator in PAW spheres
   LVEL    =     F    velocity operator in full k-point grid
   LINTERFAST=   F  fast interpolation
   KINTER  =     0    interpolate to denser k-point grid
   CSHIFT  =0.1000    complex shift for real part using Kramers Kronig
   OMEGAMAX=  -1.0    maximum frequency
   DEG_THRESHOLD= 0.2000000E-02 threshold for treating states as degnerate
   RTIME   =   -0.100 relaxation time in fs
  (WPLASMAI=    0.000 imaginary part of plasma frequency in eV, 0.658/RTIME)
   DFIELD  = 0.0000000 0.0000000 0.0000000 field for delta impulse in time
 
 Orbital magnetization related:
   ORBITALMAG=     F  switch on orbital magnetization
   LCHIMAG   =     F  perturbation theory with respect to B field
   DQ        =  0.001000  dq finite difference perturbation B field
   LLRAUG    =     F  two centre corrections for induced B field



--------------------------------------------------------------------------------------------------------


 Static calculation
 charge density and potential remain constant during run
 non-spin polarized calculation
 RMM-DIIS sequential band-by-band and
  variant of blocked Davidson during initial phase
 perform sub-space diagonalisation
    before iterative eigenvector-optimisation
 no mixing
 using additional bands           26
 real space projection scheme for non local part
 calculate Harris-corrections to forces 
   (improved forces if not selfconsistent)
 use of overlap-Matrix (Vanderbilt PP)
 Fermi-smearing in eV        SIGMA  =   0.02


--------------------------------------------------------------------------------------------------------


  energy-cutoff  :      400.00
  volume of cell :     1310.21
      direct lattice vectors                 reciprocal lattice vectors
    12.300000000  0.000000000  0.000000000     0.081300813  0.046939046  0.000000000
    -6.150000000 10.652112467  0.000000000     0.000000000  0.093878093  0.000000000
     0.000000000  0.000000000 10.000000000     0.000000000  0.000000000  0.100000000

  length of vectors
    12.300000000 12.300000000 10.000000000     0.093878093  0.093878093  0.100000000


 
 k-points in units of 2pi/SCALE and weight: KPOINT_file_2                           
   0.00000000  0.11734762  0.00000000       0.020
   0.00000000  0.11500066  0.00000000       0.020
   0.00000000  0.11265371  0.00000000       0.020
   0.00000000  0.11030676  0.00000000       0.020
   0.00000000  0.10795981  0.00000000       0.020
   0.00000000  0.10561285  0.00000000       0.020
   0.00000000  0.10326590  0.00000000       0.020
   0.00000000  0.10091895  0.00000000       0.020
   0.00000000  0.09857200  0.00000000       0.020
   0.00000000  0.09622504  0.00000000       0.020
   0.00000000  0.09387809  0.00000000       0.020
   0.00000000  0.09153114  0.00000000       0.020
   0.00000000  0.08918419  0.00000000       0.020
   0.00000000  0.08683724  0.00000000       0.020
   0.00000000  0.08449028  0.00000000       0.020
   0.00000000  0.08214333  0.00000000       0.020
   0.00000000  0.07979638  0.00000000       0.020
   0.00000000  0.07744943  0.00000000       0.020
   0.00000000  0.07510247  0.00000000       0.020
   0.00000000  0.07275552  0.00000000       0.020
   0.00000000  0.07040857  0.00000000       0.020
   0.00000000  0.06806162  0.00000000       0.020
   0.00000000  0.06571466  0.00000000       0.020
   0.00000000  0.06336771  0.00000000       0.020
   0.00000000  0.06102076  0.00000000       0.020
   0.00000000  0.05867381  0.00000000       0.020
   0.00000000  0.05632686  0.00000000       0.020
   0.00000000  0.05397990  0.00000000       0.020
   0.00000000  0.05163295  0.00000000       0.020
   0.00000000  0.04928600  0.00000000       0.020
   0.00000000  0.04693905  0.00000000       0.020
   0.00000000  0.04459209  0.00000000       0.020
   0.00000000  0.04224514  0.00000000       0.020
   0.00000000  0.03989819  0.00000000       0.020
   0.00000000  0.03755124  0.00000000       0.020
   0.00000000  0.03520428  0.00000000       0.020
   0.00000000  0.03285733  0.00000000       0.020
   0.00000000  0.03051038  0.00000000       0.020
   0.00000000  0.02816343  0.00000000       0.020
   0.00000000  0.02581648  0.00000000       0.020
   0.00000000  0.02346952  0.00000000       0.020
   0.00000000  0.02112257  0.00000000       0.020
   0.00000000  0.01877562  0.00000000       0.020
   0.00000000  0.01642867  0.00000000       0.020
   0.00000000  0.01408171  0.00000000       0.020
   0.00000000  0.01173476  0.00000000       0.020
   0.00000000  0.00938781  0.00000000       0.020
   0.00000000  0.00704086  0.00000000       0.020
   0.00000000  0.00469390  0.00000000       0.020
   0.00000000  0.00234695  0.00000000       0.020
   0.00000000  0.00000000  0.00000000       0.020
 
 k-points in reciprocal lattice and weights: KPOINT_file_2                           
   0.00000000  1.25000000  0.00000000       0.020
   0.00000000  1.22500000  0.00000000       0.020
   0.00000000  1.20000000  0.00000000       0.020
   0.00000000  1.17500000  0.00000000       0.020
   0.00000000  1.15000000  0.00000000       0.020
   0.00000000  1.12500000  0.00000000       0.020
   0.00000000  1.10000000  0.00000000       0.020
   0.00000000  1.07500000  0.00000000       0.020
   0.00000000  1.05000000  0.00000000       0.020
   0.00000000  1.02500000  0.00000000       0.020
   0.00000000  1.00000000  0.00000000       0.020
   0.00000000  0.97500000  0.00000000       0.020
   0.00000000  0.95000000  0.00000000       0.020
   0.00000000  0.92500000  0.00000000       0.020
   0.00000000  0.90000000  0.00000000       0.020
   0.00000000  0.87500000  0.00000000       0.020
   0.00000000  0.85000000  0.00000000       0.020
   0.00000000  0.82500000  0.00000000       0.020
   0.00000000  0.80000000  0.00000000       0.020
   0.00000000  0.77500000  0.00000000       0.020
   0.00000000  0.75000000  0.00000000       0.020
   0.00000000  0.72500000  0.00000000       0.020
   0.00000000  0.70000000  0.00000000       0.020
   0.00000000  0.67500000  0.00000000       0.020
   0.00000000  0.65000000  0.00000000       0.020
   0.00000000  0.62500000  0.00000000       0.020
   0.00000000  0.60000000  0.00000000       0.020
   0.00000000  0.57500000  0.00000000       0.020
   0.00000000  0.55000000  0.00000000       0.020
   0.00000000  0.52500000  0.00000000       0.020
   0.00000000  0.50000000  0.00000000       0.020
   0.00000000  0.47500000  0.00000000       0.020
   0.00000000  0.45000000  0.00000000       0.020
   0.00000000  0.42500000  0.00000000       0.020
   0.00000000  0.40000000  0.00000000       0.020
   0.00000000  0.37500000  0.00000000       0.020
   0.00000000  0.35000000  0.00000000       0.020
   0.00000000  0.32500000  0.00000000       0.020
   0.00000000  0.30000000  0.00000000       0.020
   0.00000000  0.27500000  0.00000000       0.020
   0.00000000  0.25000000  0.00000000       0.020
   0.00000000  0.22500000  0.00000000       0.020
   0.00000000  0.20000000  0.00000000       0.020
   0.00000000  0.17500000  0.00000000       0.020
   0.00000000  0.15000000  0.00000000       0.020
   0.00000000  0.12500000  0.00000000       0.020
   0.00000000  0.10000000  0.00000000       0.020
   0.00000000  0.07500000  0.00000000       0.020
   0.00000000  0.05000000  0.00000000       0.020
   0.00000000  0.02500000  0.00000000       0.020
   0.00000000  0.00000000  0.00000000       0.020
 
 position of ions in fractional coordinates (direct lattice) 
   0.00000000  0.00000000  0.50000000
   0.20000000  0.00000000  0.50000000
   0.40000000  0.00000000  0.50000000
   0.60000000  0.00000000  0.50000000
   0.80000000  0.00000000  0.50000000
   0.00000000  0.20000000  0.50000000
   0.20000000  0.20000000  0.50000000
   0.40000000  0.20000000  0.50000000
   0.60000000  0.20000000  0.50000000
   0.80000000  0.20000000  0.50000000
   0.00000000  0.40000000  0.50000000
   0.20000000  0.40000000  0.50000000
   0.40000000  0.40000000  0.50000000
   0.60000000  0.40000000  0.50000000
   0.80000000  0.40000000  0.50000000
   0.00000000  0.60000000  0.50000000
   0.20000000  0.60000000  0.50000000
   0.40000000  0.60000000  0.50000000
   0.60000000  0.60000000  0.50000000
   0.80000000  0.60000000  0.50000000
   0.00000000  0.80000000  0.50000000
   0.20000000  0.80000000  0.50000000
   0.40000000  0.80000000  0.50000000
   0.60000000  0.80000000  0.50000000
   0.80000000  0.80000000  0.50000000
   0.13333333  0.06666667  0.50000000
   0.33333333  0.06666667  0.50000000
   0.53333333  0.06666667  0.50000000
   0.73333333  0.06666667  0.50000000
   0.93333333  0.06666667  0.50000000
   0.13333333  0.26666667  0.50000000
   0.53333333  0.26666667  0.50000000
   0.73333333  0.26666667  0.50000000
   0.93333333  0.26666667  0.50000000
   0.13333333  0.46666667  0.50000000
   0.33333333  0.46666667  0.50000000
   0.53333333  0.46666667  0.50000000
   0.73333333  0.46666667  0.50000000
   0.93333333  0.46666667  0.50000000
   0.13333333  0.66666667  0.50000000
   0.33333333  0.66666667  0.50000000
   0.53333333  0.66666667  0.50000000
   0.73333333  0.66666667  0.50000000
   0.93333333  0.66666667  0.50000000
   0.13333333  0.86666667  0.50000000
   0.33333333  0.86666667  0.50000000
   0.53333333  0.86666667  0.50000000
   0.73333333  0.86666667  0.50000000
   0.93333333  0.86666667  0.50000000
 
 position of ions in cartesian coordinates  (Angst):
   0.00000000  0.00000000  5.00000000
   2.46000000  0.00000000  5.00000000
   4.92000000  0.00000000  5.00000000
   7.38000000  0.00000000  5.00000000
   9.84000000  0.00000000  5.00000000
  -1.23000000  2.13042249  5.00000000
   1.23000000  2.13042249  5.00000000
   3.69000000  2.13042249  5.00000000
   6.15000000  2.13042249  5.00000000
   8.61000000  2.13042249  5.00000000
  -2.46000000  4.26084499  5.00000000
   0.00000000  4.26084499  5.00000000
   2.46000000  4.26084499  5.00000000
   4.92000000  4.26084499  5.00000000
   7.38000000  4.26084499  5.00000000
  -3.69000000  6.39126748  5.00000000
  -1.23000000  6.39126748  5.00000000
   1.23000000  6.39126748  5.00000000
   3.69000000  6.39126748  5.00000000
   6.15000000  6.39126748  5.00000000
  -4.92000000  8.52168997  5.00000000
  -2.46000000  8.52168997  5.00000000
   0.00000000  8.52168997  5.00000000
   2.46000000  8.52168997  5.00000000
   4.92000000  8.52168997  5.00000000
   1.23000000  0.71014083  5.00000000
   3.69000000  0.71014083  5.00000000
   6.15000000  0.71014083  5.00000000
   8.61000000  0.71014083  5.00000000
  11.07000000  0.71014083  5.00000000
   0.00000000  2.84056332  5.00000000
   4.92000000  2.84056332  5.00000000
   7.38000000  2.84056332  5.00000000
   9.84000000  2.84056332  5.00000000
  -1.23000000  4.97098582  5.00000000
   1.23000000  4.97098582  5.00000000
   3.69000000  4.97098582  5.00000000
   6.15000000  4.97098582  5.00000000
   8.61000000  4.97098582  5.00000000
  -2.46000000  7.10140831  5.00000000
   0.00000000  7.10140831  5.00000000
   2.46000000  7.10140831  5.00000000
   4.92000000  7.10140831  5.00000000
   7.38000000  7.10140831  5.00000000
  -3.69000000  9.23183080  5.00000000
  -1.23000000  9.23183080  5.00000000
   1.23000000  9.23183080  5.00000000
   3.69000000  9.23183080  5.00000000
   6.15000000  9.23183080  5.00000000
 


--------------------------------------------------------------------------------------------------------


 k-point  1 :   0.0000 1.2500 0.0000  plane waves:   23801
 k-point  2 :   0.0000 1.2250 0.0000  plane waves:   23793
 k-point  3 :   0.0000 1.2000 0.0000  plane waves:   23791
 k-point  4 :   0.0000 1.1750 0.0000  plane waves:   23775
 k-point  5 :   0.0000 1.1500 0.0000  plane waves:   23773
 k-point  6 :   0.0000 1.1250 0.0000  plane waves:   23771
 k-point  7 :   0.0000 1.1000 0.0000  plane waves:   23751
 k-point  8 :   0.0000 1.0750 0.0000  plane waves:   23767
 k-point  9 :   0.0000 1.0500 0.0000  plane waves:   23799
 k-point 10 :   0.0000 1.0250 0.0000  plane waves:   23767
 k-point 11 :   0.0000 1.0000 0.0000  plane waves:   23799
 k-point 12 :   0.0000 0.9750 0.0000  plane waves:   23767
 k-point 13 :   0.0000 0.9500 0.0000  plane waves:   23799
 k-point 14 :   0.0000 0.9250 0.0000  plane waves:   23767
 k-point 15 :   0.0000 0.9000 0.0000  plane waves:   23751
 k-point 16 :   0.0000 0.8750 0.0000  plane waves:   23771
 k-point 17 :   0.0000 0.8500 0.0000  plane waves:   23773
 k-point 18 :   0.0000 0.8250 0.0000  plane waves:   23775
 k-point 19 :   0.0000 0.8000 0.0000  plane waves:   23791
 k-point 20 :   0.0000 0.7750 0.0000  plane waves:   23793
 k-point 21 :   0.0000 0.7500 0.0000  plane waves:   23801
 k-point 22 :   0.0000 0.7250 0.0000  plane waves:   23791
 k-point 23 :   0.0000 0.7000 0.0000  plane waves:   23797
 k-point 24 :   0.0000 0.6750 0.0000  plane waves:   23805
 k-point 25 :   0.0000 0.6500 0.0000  plane waves:   23805
 k-point 26 :   0.0000 0.6250 0.0000  plane waves:   23818
 k-point 27 :   0.0000 0.6000 0.0000  plane waves:   23826
 k-point 28 :   0.0000 0.5750 0.0000  plane waves:   23832
 k-point 29 :   0.0000 0.5500 0.0000  plane waves:   23822
 k-point 30 :   0.0000 0.5250 0.0000  plane waves:   23816
 k-point 31 :   0.0000 0.5000 0.0000  plane waves:   23830
 k-point 32 :   0.0000 0.4750 0.0000  plane waves:   23816
 k-point 33 :   0.0000 0.4500 0.0000  plane waves:   23822
 k-point 34 :   0.0000 0.4250 0.0000  plane waves:   23832
 k-point 35 :   0.0000 0.4000 0.0000  plane waves:   23826
 k-point 36 :   0.0000 0.3750 0.0000  plane waves:   23818
 k-point 37 :   0.0000 0.3500 0.0000  plane waves:   23805
 k-point 38 :   0.0000 0.3250 0.0000  plane waves:   23805
 k-point 39 :   0.0000 0.3000 0.0000  plane waves:   23797
 k-point 40 :   0.0000 0.2750 0.0000  plane waves:   23791
 k-point 41 :   0.0000 0.2500 0.0000  plane waves:   23801
 k-point 42 :   0.0000 0.2250 0.0000  plane waves:   23793
 k-point 43 :   0.0000 0.2000 0.0000  plane waves:   23791
 k-point 44 :   0.0000 0.1750 0.0000  plane waves:   23775
 k-point 45 :   0.0000 0.1500 0.0000  plane waves:   23773
 k-point 46 :   0.0000 0.1250 0.0000  plane waves:   23771
 k-point 47 :   0.0000 0.1000 0.0000  plane waves:   23751
 k-point 48 :   0.0000 0.0750 0.0000  plane waves:   23767
 k-point 49 :   0.0000 0.0500 0.0000  plane waves:   23799
 k-point 50 :   0.0000 0.0250 0.0000  plane waves:   23767
 k-point 51 :   0.0000 0.0000 0.0000  plane waves:   23799

 maximum and minimum number of plane-waves per node :     23832    23751

 maximum number of plane-waves:     23832
 maximum index in each direction: 
   IXMAX=   20   IYMAX=   20   IZMAX=   16
   IXMIN=  -20   IYMIN=  -21   IZMIN=  -16


 serial   3D FFT for wavefunctions
 parallel 3D FFT for charge:
    minimum data exchange during FFTs selected (reduces bandwidth)


 total amount of memory used by VASP MPI-rank0   685944. kBytes
=======================================================================

   base      :      30000. kBytes
   nonlr-proj:       5203. kBytes
   fftplans  :      13053. kBytes
   grid      :      24768. kBytes
   one-center:        150. kBytes
   wavefun   :     612770. kBytes
 
     INWAV:  cpu time    0.0000: real time    0.0008
 initial charge density was supplied:
 number of electron     195.9999579 magnetization 
 keeping initial charge density in first step


--------------------------------------------------------------------------------------------------------


 Maximum index for non-local projection operator         1207
 Maximum index for augmentation-charges          367 (set IRDMAX)


--------------------------------------------------------------------------------------------------------


 First call to EWALD:  gamma=   0.162
 Maximum number of real-space cells 3x 3x 3
 Maximum number of reciprocal cells 3x 3x 3

    FEWALD:  cpu time    0.0045: real time    0.0045


----------------------------------------- Iteration    1(   1)  ---------------------------------------


    POTLOK:  cpu time    0.0578: real time    0.1131
    SETDIJ:  cpu time    0.0079: real time    0.0161
     EDDAV:  cpu time   25.1243: real time   50.3545
       DOS:  cpu time    0.0009: real time    0.0009
    --------------------------------------------
      LOOP:  cpu time   25.1928: real time   50.4866

 eigenvalue-minimisations  : 12896
 total energy-change (2. order) : 0.1249211E+04  (-0.6906720E+04)
 number of electron     195.9999579 magnetization 
 augmentation part      195.9999579 magnetization 

 Free energy of the ion-electron system (eV)
  ---------------------------------------------------
  alpha Z        PSCENC =       138.85708194
  Ewald energy   TEWEN  =      9130.28498459
  -Hartree energ DENC   =    -15507.95981469
  -exchange      EXHF   =         0.00000000
  -V(xc)+E(xc)   XCENC  =       707.36475670
  PAW double counting   =      3406.89119115    -3469.63674197
  entropy T*S    EENTRO =        -0.01520583
  eigenvalues    EBANDS =      -342.85697403
  atomic energy  EATOM  =      7186.28135141
  Solvation  Ediel_sol  =         0.00000000
  ---------------------------------------------------
  free energy    TOTEN  =      1249.21062927 eV

  energy without entropy =     1249.22583510  energy(sigma->0) =     1249.21823219


--------------------------------------------------------------------------------------------------------




----------------------------------------- Iteration    1(   2)  ---------------------------------------


     EDDAV:  cpu time   33.8870: real time   67.9212
       DOS:  cpu time    0.0008: real time    0.0008
    --------------------------------------------
      LOOP:  cpu time   33.8891: real time   67.9316

 eigenvalue-minimisations  : 18344
 total energy-change (2. order) :-0.1502982E+04  (-0.1422454E+04)
 number of electron     195.9999579 magnetization 
 augmentation part      195.9999579 magnetization 

 Free energy of the ion-electron system (eV)
  ---------------------------------------------------
  alpha Z        PSCENC =       138.85708194
  Ewald energy   TEWEN  =      9130.28498459
  -Hartree energ DENC   =    -15507.95981469
  -exchange      EXHF   =         0.00000000
  -V(xc)+E(xc)   XCENC  =       707.36475670
  PAW double counting   =      3406.89119115    -3469.63674197
  entropy T*S    EENTRO =        -0.00068500
  eigenvalues    EBANDS =     -1845.85323635
  atomic energy  EATOM  =      7186.28135141
  Solvation  Ediel_sol  =         0.00000000
  ---------------------------------------------------
  free energy    TOTEN  =      -253.77111221 eV

  energy without entropy =     -253.77042722  energy(sigma->0) =     -253.77076971


--------------------------------------------------------------------------------------------------------




----------------------------------------- Iteration    1(   3)  ---------------------------------------


     EDDAV:  cpu time   29.4094: real time   58.9547
       DOS:  cpu time    0.0008: real time    0.0008
    --------------------------------------------
      LOOP:  cpu time   29.4106: real time   58.9559

 eigenvalue-minimisations  : 15160
 total energy-change (2. order) :-0.2253309E+03  (-0.2232370E+03)
 number of electron     195.9999579 magnetization 
 augmentation part      195.9999579 magnetization 

 Free energy of the ion-electron system (eV)
  ---------------------------------------------------
  alpha Z        PSCENC =       138.85708194
  Ewald energy   TEWEN  =      9130.28498459
  -Hartree energ DENC   =    -15507.95981469
  -exchange      EXHF   =         0.00000000
  -V(xc)+E(xc)   XCENC  =       707.36475670
  PAW double counting   =      3406.89119115    -3469.63674197
  entropy T*S    EENTRO =        -0.00029221
  eigenvalues    EBANDS =     -2071.18457798
  atomic energy  EATOM  =      7186.28135141
  Solvation  Ediel_sol  =         0.00000000
  ---------------------------------------------------
  free energy    TOTEN  =      -479.10206106 eV

  energy without entropy =     -479.10176885  energy(sigma->0) =     -479.10191495


--------------------------------------------------------------------------------------------------------




----------------------------------------- Iteration    1(   4)  ---------------------------------------


     EDDAV:  cpu time   29.8644: real time   59.9138
       DOS:  cpu time    0.0016: real time    0.0031
    --------------------------------------------
      LOOP:  cpu time   29.8665: real time   59.9173

 eigenvalue-minimisations  : 15428
 total energy-change (2. order) :-0.6768544E+01  (-0.6719179E+01)
 number of electron     195.9999579 magnetization 
 augmentation part      195.9999579 magnetization 

 Free energy of the ion-electron system (eV)
  ---------------------------------------------------
  alpha Z        PSCENC =       138.85708194
  Ewald energy   TEWEN  =      9130.28498459
  -Hartree energ DENC   =    -15507.95981469
  -exchange      EXHF   =         0.00000000
  -V(xc)+E(xc)   XCENC  =       707.36475670
  PAW double counting   =      3406.89119115    -3469.63674197
  entropy T*S    EENTRO =        -0.00073819
  eigenvalues    EBANDS =     -2077.95267584
  atomic energy  EATOM  =      7186.28135141
  Solvation  Ediel_sol  =         0.00000000
  ---------------------------------------------------
  free energy    TOTEN  =      -485.87060490 eV

  energy without entropy =     -485.86986671  energy(sigma->0) =     -485.87023580


--------------------------------------------------------------------------------------------------------




----------------------------------------- Iteration    1(   5)  ---------------------------------------


     EDDAV:  cpu time   31.6394: real time   63.4779
       DOS:  cpu time    0.0015: real time    0.0014
    --------------------------------------------
      LOOP:  cpu time   31.6413: real time   63.4796

 eigenvalue-minimisations  : 16912
 total energy-change (2. order) :-0.2064239E+00  (-0.2059736E+00)
 number of electron     195.9999579 magnetization 
 augmentation part      195.9999579 magnetization 

 Free energy of the ion-electron system (eV)
  ---------------------------------------------------
  alpha Z        PSCENC =       138.85708194
  Ewald energy   TEWEN  =      9130.28498459
  -Hartree energ DENC   =    -15507.95981469
  -exchange      EXHF   =         0.00000000
  -V(xc)+E(xc)   XCENC  =       707.36475670
  PAW double counting   =      3406.89119115    -3469.63674197
  entropy T*S    EENTRO =        -0.00081368
  eigenvalues    EBANDS =     -2078.15902427
  atomic energy  EATOM  =      7186.28135141
  Solvation  Ediel_sol  =         0.00000000
  ---------------------------------------------------
  free energy    TOTEN  =      -486.07702881 eV

  energy without entropy =     -486.07621513  energy(sigma->0) =     -486.07662197


--------------------------------------------------------------------------------------------------------




----------------------------------------- Iteration    1(   6)  ---------------------------------------


    EDDIAG:  cpu time    4.8009: real time    9.6292
  RMM-DIIS:  cpu time    6.3586: real time   12.7187
    ORTHCH:  cpu time    2.0437: real time    4.1000
       DOS:  cpu time    0.0009: real time    0.0041
    --------------------------------------------
      LOOP:  cpu time   13.2052: real time   26.4533

 eigenvalue-minimisations  : 13766
 total energy-change (2. order) :-0.5079767E-02  (-0.5079767E-02)
 number of electron     195.9999579 magnetization 
 augmentation part      195.9999579 magnetization 

 Free energy of the ion-electron system (eV)
  ---------------------------------------------------
  alpha Z        PSCENC =       138.85708194
  Ewald energy   TEWEN  =      9130.28498459
  -Hartree energ DENC   =    -15507.95981469
  -exchange      EXHF   =         0.00000000
  -V(xc)+E(xc)   XCENC  =       707.36475670
  PAW double counting   =      3406.89119115    -3469.63674197
  entropy T*S    EENTRO =        -0.00081499
  eigenvalues    EBANDS =     -2078.16410273
  atomic energy  EATOM  =      7186.28135141
  Solvation  Ediel_sol  =         0.00000000
  ---------------------------------------------------
  free energy    TOTEN  =      -486.08210858 eV

  energy without entropy =     -486.08129359  energy(sigma->0) =     -486.08170109


--------------------------------------------------------------------------------------------------------




----------------------------------------- Iteration    1(   7)  ---------------------------------------


    EDDIAG:  cpu time    4.3165: real time    8.6499
  RMM-DIIS:  cpu time    9.1473: real time   18.3319
    ORTHCH:  cpu time    1.9951: real time    3.9975
       DOS:  cpu time    0.0014: real time    0.0047
    --------------------------------------------
      LOOP:  cpu time   15.4608: real time   30.9845

 eigenvalue-minimisations  : 19622
 total energy-change (2. order) :-0.6195927E-03  (-0.6117027E-03)
 number of electron     195.9999579 magnetization 
 augmentation part      195.9999579 magnetization 

 Free energy of the ion-electron system (eV)
  ---------------------------------------------------
  alpha Z        PSCENC =       138.85708194
  Ewald energy   TEWEN  =      9130.28498459
  -Hartree energ DENC   =    -15507.95981469
  -exchange      EXHF   =         0.00000000
  -V(xc)+E(xc)   XCENC  =       707.36475670
  PAW double counting   =      3406.89119115    -3469.63674197
  entropy T*S    EENTRO =        -0.00081527
  eigenvalues    EBANDS =     -2078.16472204
  atomic energy  EATOM  =      7186.28135141
  Solvation  Ediel_sol  =         0.00000000
  ---------------------------------------------------
  free energy    TOTEN  =      -486.08272817 eV

  energy without entropy =     -486.08191291  energy(sigma->0) =     -486.08232054


--------------------------------------------------------------------------------------------------------




----------------------------------------- Iteration    1(   8)  ---------------------------------------


    EDDIAG:  cpu time    4.5707: real time    9.1724
  RMM-DIIS:  cpu time    8.1790: real time   16.3737
    ORTHCH:  cpu time    2.2867: real time    4.6709
       DOS:  cpu time    0.0008: real time    0.0008
    --------------------------------------------
      LOOP:  cpu time   15.0379: real time   30.2181

 eigenvalue-minimisations  : 16698
 total energy-change (2. order) :-0.6730207E-05  (-0.6978121E-05)
 number of electron     195.9999579 magnetization 
 augmentation part      195.9999579 magnetization 

 Free energy of the ion-electron system (eV)
  ---------------------------------------------------
  alpha Z        PSCENC =       138.85708194
  Ewald energy   TEWEN  =      9130.28498459
  -Hartree energ DENC   =    -15507.95981469
  -exchange      EXHF   =         0.00000000
  -V(xc)+E(xc)   XCENC  =       707.36475670
  PAW double counting   =      3406.89119115    -3469.63674197
  entropy T*S    EENTRO =        -0.00081529
  eigenvalues    EBANDS =     -2078.16472875
  atomic energy  EATOM  =      7186.28135141
  Solvation  Ediel_sol  =         0.00000000
  ---------------------------------------------------
  free energy    TOTEN  =      -486.08273490 eV

  energy without entropy =     -486.08191962  energy(sigma->0) =     -486.08232726


--------------------------------------------------------------------------------------------------------




----------------------------------------- Iteration    1(   9)  ---------------------------------------


    EDDIAG:  cpu time    4.2143: real time    8.4509
  RMM-DIIS:  cpu time    5.2630: real time   10.5437
    ORTHCH:  cpu time    2.3140: real time    4.6936
       DOS:  cpu time    0.0020: real time    0.0103
    --------------------------------------------
      LOOP:  cpu time   11.7939: real time   23.6990

 eigenvalue-minimisations  : 10710
 total energy-change (2. order) :-0.3650284E-06  (-0.3515154E-06)
 number of electron     195.9999579 magnetization 
 augmentation part      195.9999579 magnetization 

 Free energy of the ion-electron system (eV)
  ---------------------------------------------------
  alpha Z        PSCENC =       138.85708194
  Ewald energy   TEWEN  =      9130.28498459
  -Hartree energ DENC   =    -15507.95981469
  -exchange      EXHF   =         0.00000000
  -V(xc)+E(xc)   XCENC  =       707.36475670
  PAW double counting   =      3406.89119115    -3469.63674197
  entropy T*S    EENTRO =        -0.00081529
  eigenvalues    EBANDS =     -2078.16472911
  atomic energy  EATOM  =      7186.28135141
  Solvation  Ediel_sol  =         0.00000000
  ---------------------------------------------------
  free energy    TOTEN  =      -486.08273527 eV

  energy without entropy =     -486.08191998  energy(sigma->0) =     -486.08232762


--------------------------------------------------------------------------------------------------------




 average (electrostatic) potential at core
  the test charge radii are     0.6991
  (the norm of the test charge is              1.0000)
       1 -61.3452       2 -61.0371       3 -61.3453       4 -61.1771       5 -61.1771
       6 -61.3452       7 -61.9532       8 -61.9534       9 -61.3453      10 -61.1942
      11 -61.0883      12 -61.0370      13 -61.9532      14 -61.0371      15 -61.0884
      16 -60.9669      17 -61.0883      18 -61.3452      19 -61.3452      20 -61.0883
      21 -61.0883      22 -61.0884      23 -61.1942      24 -61.1771      25 -61.1942
      26 -61.4061      27 -61.4062      28 -61.2215      29 -61.1799      30 -61.2214
      31 -61.4061      32 -61.4062      33 -61.2090      34 -61.2089      35 -61.1206
      36 -61.4061      37 -61.4061      38 -61.1207      39 -61.0920      40 -61.0920
      41 -61.2089      42 -61.2214      43 -61.2089      44 -61.0920      45 -61.1207
      46 -61.2090      47 -61.1799      48 -61.1799      49 -61.2089
 
 
 
 E-fermi :  -1.7943     XC(G=0):  -4.3486     alpha+bet : -3.8195


 k-point     1 :       0.0000    1.2500    0.0000
  band No.  band energies     occupation 
      1     -20.8285      2.00000
      2     -20.3691      2.00000
      3     -20.1901      2.00000
      4     -20.0431      2.00000
      5     -19.7202      2.00000
      6     -19.5825      2.00000
      7     -19.3074      2.00000
      8     -18.8015      2.00000
      9     -18.6028      2.00000
     10     -18.0972      2.00000
     11     -18.0730      2.00000
     12     -17.9027      2.00000
     13     -17.6248      2.00000
     14     -17.4870      2.00000
     15     -17.4330      2.00000
     16     -17.0996      2.00000
     17     -16.7337      2.00000
     18     -16.5434      2.00000
     19     -16.0635      2.00000
     20     -15.7334      2.00000
     21     -15.6276      2.00000
     22     -15.5457      2.00000
     23     -15.1895      2.00000
     24     -14.8918      2.00000
     25     -14.5367      2.00000
     26     -14.0805      2.00000
     27     -14.0616      2.00000
     28     -13.8266      2.00000
     29     -13.6197      2.00000
     30     -13.5607      2.00000
     31     -13.4829      2.00000
     32     -13.2334      2.00000
     33     -13.2212      2.00000
     34     -12.5562      2.00000
     35     -12.0584      2.00000
     36     -11.8129      2.00000
     37     -11.3745      2.00000
     38     -11.3527      2.00000
     39     -11.2443      2.00000
     40     -11.1888      2.00000
     41     -10.8910      2.00000
     42     -10.7184      2.00000
     43     -10.4225      2.00000
     44     -10.1754      2.00000
     45      -9.9609      2.00000
     46      -9.6879      2.00000
     47      -9.6633      2.00000
     48      -9.5859      2.00000
     49      -9.4320      2.00000
     50      -9.2350      2.00000
     51      -9.1188      2.00000
     52      -9.0134      2.00000
     53      -8.6889      2.00000
     54      -8.6755      2.00000
     55      -8.5644      2.00000
     56      -8.4452      2.00000
     57      -8.3392      2.00000
     58      -8.2750      2.00000
     59      -8.1867      2.00000
     60      -8.1839      2.00000
     61      -8.1662      2.00000
     62      -8.0637      2.00000
     63      -7.9332      2.00000
     64      -7.8929      2.00000
     65      -7.7835      2.00000
     66      -7.6558      2.00000
     67      -7.6441      2.00000
     68      -7.4983      2.00000
     69      -7.3476      2.00000
     70      -7.3303      2.00000
     71      -7.0604      2.00000
     72      -6.8330      2.00000
     73      -6.7041      2.00000
     74      -6.6401      2.00000
     75      -6.6008      2.00000
     76      -6.5252      2.00000
     77      -6.2300      2.00000
     78      -6.1245      2.00000
     79      -5.9249      2.00000
     80      -5.9063      2.00000
     81      -5.7892      2.00000
     82      -5.7399      2.00000
     83      -5.6952      2.00000
     84      -5.4453      2.00000
     85      -5.3018      2.00000
     86      -5.1669      2.00000
     87      -5.0643      2.00000
     88      -4.9828      2.00000
     89      -4.9113      2.00000
     90      -4.5909      2.00000
     91      -4.4166      2.00000
     92      -4.0463      2.00000
     93      -3.5392      2.00000
     94      -3.5005      2.00000
     95      -3.4786      2.00000
     96      -2.9901      2.00000
     97      -2.7050      2.00000
     98      -1.9323      1.99798
     99      -1.6403      0.00090
    100      -1.6006      0.00012
    101      -0.4563      0.00000
    102      -0.3080      0.00000
    103       0.0836      0.00000
    104       0.1478      0.00000
    105       0.1815      0.00000
    106       0.4513      0.00000
    107       0.7694      0.00000
    108       1.0392      0.00000
    109       1.4620      0.00000
    110       1.8835      0.00000
    111       2.2162      0.00000
    112       2.2674      0.00000
    113       2.2689      0.00000
    114       2.5243      0.00000
    115       2.7095      0.00000
    116       2.8292      0.00000
    117       2.8781      0.00000
    118       3.0919      0.00000
    119       3.4712      0.00000
    120       3.5124      0.00000
    121       3.5540      0.00000
    122       3.8226      0.00000
    123       4.0872      0.00000
    124       4.4811      0.00000

 k-point     2 :       0.0000    1.2250    0.0000
  band No.  band energies     occupation 
      1     -20.8387      2.00000
      2     -20.3366      2.00000
      3     -20.1781      2.00000
      4     -20.0364      2.00000
      5     -19.7541      2.00000
      6     -19.6225      2.00000
      7     -19.3434      2.00000
      8     -18.7443      2.00000
      9     -18.5544      2.00000
     10     -18.0834      2.00000
     11     -18.0597      2.00000
     12     -17.8749      2.00000
     13     -17.6012      2.00000
     14     -17.5008      2.00000
     15     -17.5006      2.00000
     16     -17.1361      2.00000
     17     -16.7857      2.00000
     18     -16.6065      2.00000
     19     -16.1127      2.00000
     20     -15.6446      2.00000
     21     -15.5504      2.00000
     22     -15.4853      2.00000
     23     -15.1553      2.00000
     24     -14.8934      2.00000
     25     -14.5221      2.00000
     26     -14.1039      2.00000
     27     -14.0720      2.00000
     28     -13.7742      2.00000
     29     -13.6696      2.00000
     30     -13.5791      2.00000
     31     -13.5781      2.00000
     32     -13.2599      2.00000
     33     -13.1811      2.00000
     34     -12.5889      2.00000
     35     -12.1213      2.00000
     36     -11.8894      2.00000
     37     -11.3310      2.00000
     38     -11.2785      2.00000
     39     -11.1733      2.00000
     40     -11.1612      2.00000
     41     -10.8381      2.00000
     42     -10.6647      2.00000
     43     -10.4244      2.00000
     44     -10.1813      2.00000
     45      -9.9466      2.00000
     46      -9.7227      2.00000
     47      -9.6788      2.00000
     48      -9.6411      2.00000
     49      -9.4557      2.00000
     50      -9.2586      2.00000
     51      -9.1314      2.00000
     52      -8.9968      2.00000
     53      -8.7364      2.00000
     54      -8.6260      2.00000
     55      -8.5249      2.00000
     56      -8.4570      2.00000
     57      -8.3250      2.00000
     58      -8.2794      2.00000
     59      -8.1894      2.00000
     60      -8.1776      2.00000
     61      -8.1682      2.00000
     62      -8.0358      2.00000
     63      -7.9084      2.00000
     64      -7.8735      2.00000
     65      -7.8238      2.00000
     66      -7.6895      2.00000
     67      -7.6677      2.00000
     68      -7.5453      2.00000
     69      -7.3952      2.00000
     70      -7.3599      2.00000
     71      -7.0488      2.00000
     72      -6.8157      2.00000
     73      -6.6895      2.00000
     74      -6.6374      2.00000
     75      -6.5452      2.00000
     76      -6.4672      2.00000
     77      -6.2128      2.00000
     78      -6.1274      2.00000
     79      -5.9175      2.00000
     80      -5.8774      2.00000
     81      -5.8190      2.00000
     82      -5.7155      2.00000
     83      -5.7110      2.00000
     84      -5.4117      2.00000
     85      -5.3110      2.00000
     86      -5.2513      2.00000
     87      -5.0373      2.00000
     88      -4.9700      2.00000
     89      -4.9591      2.00000
     90      -4.6404      2.00000
     91      -4.4697      2.00000
     92      -4.0722      2.00000
     93      -3.4872      2.00000
     94      -3.4411      2.00000
     95      -3.4103      2.00000
     96      -2.9813      2.00000
     97      -2.7312      2.00000
     98      -1.9326      1.99801
     99      -1.6320      0.00060
    100      -1.5987      0.00011
    101      -0.4416      0.00000
    102      -0.3057      0.00000
    103       0.0460      0.00000
    104       0.0957      0.00000
    105       0.1043      0.00000
    106       0.4719      0.00000
    107       0.8151      0.00000
    108       1.0951      0.00000
    109       1.4890      0.00000
    110       1.8684      0.00000
    111       2.1744      0.00000
    112       2.2747      0.00000
    113       2.3613      0.00000
    114       2.5722      0.00000
    115       2.6697      0.00000
    116       2.8459      0.00000
    117       2.8948      0.00000
    118       3.0107      0.00000
    119       3.4244      0.00000
    120       3.4642      0.00000
    121       3.5428      0.00000
    122       3.7478      0.00000
    123       4.1876      0.00000
    124       4.3442      0.00000

 k-point     3 :       0.0000    1.2000    0.0000
  band No.  band energies     occupation 
      1     -20.8479      2.00000
      2     -20.3031      2.00000
      3     -20.1650      2.00000
      4     -20.0296      2.00000
      5     -19.7868      2.00000
      6     -19.6630      2.00000
      7     -19.3767      2.00000
      8     -18.6861      2.00000
      9     -18.5051      2.00000
     10     -18.0928      2.00000
     11     -18.0379      2.00000
     12     -17.8309      2.00000
     13     -17.6149      2.00000
     14     -17.5288      2.00000
     15     -17.5229      2.00000
     16     -17.1622      2.00000
     17     -16.8366      2.00000
     18     -16.6719      2.00000
     19     -16.1595      2.00000
     20     -15.5568      2.00000
     21     -15.4740      2.00000
     22     -15.4262      2.00000
     23     -15.1220      2.00000
     24     -14.8962      2.00000
     25     -14.5093      2.00000
     26     -14.1259      2.00000
     27     -14.0889      2.00000
     28     -13.7522      2.00000
     29     -13.7264      2.00000
     30     -13.6658      2.00000
     31     -13.5649      2.00000
     32     -13.2806      2.00000
     33     -13.1370      2.00000
     34     -12.6152      2.00000
     35     -12.1837      2.00000
     36     -11.9725      2.00000
     37     -11.3560      2.00000
     38     -11.1842      2.00000
     39     -11.1119      2.00000
     40     -11.0753      2.00000
     41     -10.7777      2.00000
     42     -10.6149      2.00000
     43     -10.4265      2.00000
     44     -10.1871      2.00000
     45      -9.9450      2.00000
     46      -9.7846      2.00000
     47      -9.7044      2.00000
     48      -9.6828      2.00000
     49      -9.4676      2.00000
     50      -9.2678      2.00000
     51      -9.1427      2.00000
     52      -8.9798      2.00000
     53      -8.7838      2.00000
     54      -8.6098      2.00000
     55      -8.4843      2.00000
     56      -8.4342      2.00000
     57      -8.3298      2.00000
     58      -8.3092      2.00000
     59      -8.1910      2.00000
     60      -8.1680      2.00000
     61      -8.1283      2.00000
     62      -8.0056      2.00000
     63      -7.8842      2.00000
     64      -7.8631      2.00000
     65      -7.8547      2.00000
     66      -7.7356      2.00000
     67      -7.6794      2.00000
     68      -7.5887      2.00000
     69      -7.4396      2.00000
     70      -7.3913      2.00000
     71      -7.0556      2.00000
     72      -6.7988      2.00000
     73      -6.7287      2.00000
     74      -6.5695      2.00000
     75      -6.4918      2.00000
     76      -6.4079      2.00000
     77      -6.1941      2.00000
     78      -6.1305      2.00000
     79      -5.9274      2.00000
     80      -5.8513      2.00000
     81      -5.8498      2.00000
     82      -5.7280      2.00000
     83      -5.6705      2.00000
     84      -5.3792      2.00000
     85      -5.3329      2.00000
     86      -5.3296      2.00000
     87      -5.0120      2.00000
     88      -4.9956      2.00000
     89      -4.9580      2.00000
     90      -4.6892      2.00000
     91      -4.5260      2.00000
     92      -4.0992      2.00000
     93      -3.4362      2.00000
     94      -3.3845      2.00000
     95      -3.3463      2.00000
     96      -2.9744      2.00000
     97      -2.7596      2.00000
     98      -1.9322      1.99797
     99      -1.6240      0.00040
    100      -1.5968      0.00010
    101      -0.4256      0.00000
    102      -0.3032      0.00000
    103       0.0074      0.00000
    104       0.0343      0.00000
    105       0.0445      0.00000
    106       0.4849      0.00000
    107       0.8751      0.00000
    108       1.1516      0.00000
    109       1.5148      0.00000
    110       1.8549      0.00000
    111       2.1161      0.00000
    112       2.2659      0.00000
    113       2.4715      0.00000
    114       2.6218      0.00000
    115       2.6222      0.00000
    116       2.8642      0.00000
    117       2.9132      0.00000
    118       2.9957      0.00000
    119       3.3790      0.00000
    120       3.4177      0.00000
    121       3.5298      0.00000
    122       3.6719      0.00000
    123       4.2151      0.00000
    124       4.5084      0.00000

 k-point     4 :       0.0000    1.1750    0.0000
  band No.  band energies     occupation 
      1     -20.8561      2.00000
      2     -20.2687      2.00000
      3     -20.1508      2.00000
      4     -20.0228      2.00000
      5     -19.8182      2.00000
      6     -19.7038      2.00000
      7     -19.4070      2.00000
      8     -18.6269      2.00000
      9     -18.4553      2.00000
     10     -18.1012      2.00000
     11     -18.0282      2.00000
     12     -17.7752      2.00000
     13     -17.6762      2.00000
     14     -17.5523      2.00000
     15     -17.5074      2.00000
     16     -17.1782      2.00000
     17     -16.8863      2.00000
     18     -16.7395      2.00000
     19     -16.2029      2.00000
     20     -15.4707      2.00000
     21     -15.3993      2.00000
     22     -15.3685      2.00000
     23     -15.0906      2.00000
     24     -14.9005      2.00000
     25     -14.4986      2.00000
     26     -14.1465      2.00000
     27     -14.1089      2.00000
     28     -13.7985      2.00000
     29     -13.7703      2.00000
     30     -13.7343      2.00000
     31     -13.5109      2.00000
     32     -13.2951      2.00000
     33     -13.0906      2.00000
     34     -12.6352      2.00000
     35     -12.2452      2.00000
     36     -12.0603      2.00000
     37     -11.3958      2.00000
     38     -11.0913      2.00000
     39     -11.0323      2.00000
     40     -10.9877      2.00000
     41     -10.7153      2.00000
     42     -10.5698      2.00000
     43     -10.4284      2.00000
     44     -10.1933      2.00000
     45      -9.9606      2.00000
     46      -9.8594      2.00000
     47      -9.7359      2.00000
     48      -9.7230      2.00000
     49      -9.4652      2.00000
     50      -9.2638      2.00000
     51      -9.1527      2.00000
     52      -8.9628      2.00000
     53      -8.8299      2.00000
     54      -8.6320      2.00000
     55      -8.4425      2.00000
     56      -8.3899      2.00000
     57      -8.3720      2.00000
     58      -8.2920      2.00000
     59      -8.1907      2.00000
     60      -8.1582      2.00000
     61      -8.0790      2.00000
     62      -7.9763      2.00000
     63      -7.9007      2.00000
     64      -7.8619      2.00000
     65      -7.8377      2.00000
     66      -7.7821      2.00000
     67      -7.6912      2.00000
     68      -7.6273      2.00000
     69      -7.4802      2.00000
     70      -7.4244      2.00000
     71      -7.0868      2.00000
     72      -6.7827      2.00000
     73      -6.7512      2.00000
     74      -6.5007      2.00000
     75      -6.4405      2.00000
     76      -6.3481      2.00000
     77      -6.1755      2.00000
     78      -6.1336      2.00000
     79      -5.9362      2.00000
     80      -5.8816      2.00000
     81      -5.8415      2.00000
     82      -5.7454      2.00000
     83      -5.6108      2.00000
     84      -5.4217      2.00000
     85      -5.3573      2.00000
     86      -5.3379      2.00000
     87      -5.0196      2.00000
     88      -4.9888      2.00000
     89      -4.9470      2.00000
     90      -4.7369      2.00000
     91      -4.5847      2.00000
     92      -4.1257      2.00000
     93      -3.3859      2.00000
     94      -3.3309      2.00000
     95      -3.2871      2.00000
     96      -2.9698      2.00000
     97      -2.7900      2.00000
     98      -1.9311      1.99786
     99      -1.6165      0.00027
    100      -1.5950      0.00009
    101      -0.4084      0.00000
    102      -0.3006      0.00000
    103      -0.0419      0.00000
    104      -0.0177      0.00000
    105      -0.0041      0.00000
    106       0.4921      0.00000
    107       0.9470      0.00000
    108       1.2092      0.00000
    109       1.5393      0.00000
    110       1.8430      0.00000
    111       2.0559      0.00000
    112       2.2367      0.00000
    113       2.5691      0.00000
    114       2.5850      0.00000
    115       2.6728      0.00000
    116       2.8841      0.00000
    117       2.9333      0.00000
    118       3.0112      0.00000
    119       3.3351      0.00000
    120       3.3727      0.00000
    121       3.5196      0.00000
    122       3.5950      0.00000
    123       4.2232      0.00000
    124       4.4168      0.00000

 k-point     5 :       0.0000    1.1500    0.0000
  band No.  band energies     occupation 
      1     -20.8632      2.00000
      2     -20.2336      2.00000
      3     -20.1356      2.00000
      4     -20.0161      2.00000
      5     -19.8484      2.00000
      6     -19.7448      2.00000
      7     -19.4339      2.00000
      8     -18.5668      2.00000
      9     -18.4054      2.00000
     10     -18.1087      2.00000
     11     -18.0258      2.00000
     12     -17.7459      2.00000
     13     -17.7146      2.00000
     14     -17.5850      2.00000
     15     -17.4755      2.00000
     16     -17.1863      2.00000
     17     -16.9347      2.00000
     18     -16.8088      2.00000
     19     -16.2421      2.00000
     20     -15.3873      2.00000
     21     -15.3273      2.00000
     22     -15.3127      2.00000
     23     -15.0618      2.00000
     24     -14.9066      2.00000
     25     -14.4904      2.00000
     26     -14.1654      2.00000
     27     -14.1308      2.00000
     28     -13.8821      2.00000
     29     -13.8044      2.00000
     30     -13.7848      2.00000
     31     -13.4493      2.00000
     32     -13.2950      2.00000
     33     -13.0427      2.00000
     34     -12.6498      2.00000
     35     -12.3057      2.00000
     36     -12.1514      2.00000
     37     -11.4365      2.00000
     38     -10.9996      2.00000
     39     -10.9471      2.00000
     40     -10.8994      2.00000
     41     -10.6537      2.00000
     42     -10.5301      2.00000
     43     -10.4302      2.00000
     44     -10.2010      2.00000
     45      -9.9949      2.00000
     46      -9.9391      2.00000
     47      -9.7693      2.00000
     48      -9.7655      2.00000
     49      -9.4488      2.00000
     50      -9.2493      2.00000
     51      -9.1613      2.00000
     52      -8.9497      2.00000
     53      -8.8747      2.00000
     54      -8.6650      2.00000
     55      -8.4500      2.00000
     56      -8.3998      2.00000
     57      -8.3028      2.00000
     58      -8.2736      2.00000
     59      -8.1825      2.00000
     60      -8.1485      2.00000
     61      -8.0282      2.00000
     62      -7.9492      2.00000
     63      -7.9369      2.00000
     64      -7.8419      2.00000
     65      -7.8292      2.00000
     66      -7.8224      2.00000
     67      -7.7033      2.00000
     68      -7.6600      2.00000
     69      -7.5167      2.00000
     70      -7.4592      2.00000
     71      -7.1408      2.00000
     72      -6.7675      2.00000
     73      -6.7570      2.00000
     74      -6.4307      2.00000
     75      -6.3913      2.00000
     76      -6.2877      2.00000
     77      -6.1582      2.00000
     78      -6.1366      2.00000
     79      -5.9438      2.00000
     80      -5.9141      2.00000
     81      -5.8404      2.00000
     82      -5.7623      2.00000
     83      -5.5483      2.00000
     84      -5.5031      2.00000
     85      -5.3889      2.00000
     86      -5.3021      2.00000
     87      -5.0332      2.00000
     88      -4.9682      2.00000
     89      -4.9372      2.00000
     90      -4.7843      2.00000
     91      -4.6464      2.00000
     92      -4.1511      2.00000
     93      -3.3364      2.00000
     94      -3.2803      2.00000
     95      -3.2338      2.00000
     96      -2.9683      2.00000
     97      -2.8223      2.00000
     98      -1.9295      1.99767
     99      -1.6096      0.00019
    100      -1.5934      0.00009
    101      -0.3902      0.00000
    102      -0.2976      0.00000
    103      -0.0989      0.00000
    104      -0.0538      0.00000
    105      -0.0493      0.00000
    106       0.4956      0.00000
    107       1.0276      0.00000
    108       1.2669      0.00000
    109       1.5616      0.00000
    110       1.8326      0.00000
    111       1.9954      0.00000
    112       2.1843      0.00000
    113       2.5240      0.00000
    114       2.6953      0.00000
    115       2.7250      0.00000
    116       2.9056      0.00000
    117       2.9545      0.00000
    118       3.0622      0.00000
    119       3.2926      0.00000
    120       3.3288      0.00000
    121       3.5094      0.00000
    122       3.5255      0.00000
    123       4.3961      0.00000
    124       4.5775      0.00000

 k-point     6 :       0.0000    1.1250    0.0000
  band No.  band energies     occupation 
      1     -20.8692      2.00000
      2     -20.1978      2.00000
      3     -20.1195      2.00000
      4     -20.0098      2.00000
      5     -19.8772      2.00000
      6     -19.7858      2.00000
      7     -19.4573      2.00000
      8     -18.5059      2.00000
      9     -18.3559      2.00000
     10     -18.1154      2.00000
     11     -18.0279      2.00000
     12     -17.8161      2.00000
     13     -17.6685      2.00000
     14     -17.6021      2.00000
     15     -17.4412      2.00000
     16     -17.1890      2.00000
     17     -16.9817      2.00000
     18     -16.8794      2.00000
     19     -16.2764      2.00000
     20     -15.3081      2.00000
     21     -15.2592      2.00000
     22     -15.2591      2.00000
     23     -15.0364      2.00000
     24     -14.9150      2.00000
     25     -14.4854      2.00000
     26     -14.1823      2.00000
     27     -14.1535      2.00000
     28     -13.9658      2.00000
     29     -13.8396      2.00000
     30     -13.8262      2.00000
     31     -13.4155      2.00000
     32     -13.2579      2.00000
     33     -12.9941      2.00000
     34     -12.6603      2.00000
     35     -12.3647      2.00000
     36     -12.2443      2.00000
     37     -11.4736      2.00000
     38     -10.9086      2.00000
     39     -10.8597      2.00000
     40     -10.8114      2.00000
     41     -10.5949      2.00000
     42     -10.4966      2.00000
     43     -10.4316      2.00000
     44     -10.2123      2.00000
     45     -10.0453      2.00000
     46     -10.0216      2.00000
     47      -9.8083      2.00000
     48      -9.8029      2.00000
     49      -9.4208      2.00000
     50      -9.2273      2.00000
     51      -9.1688      2.00000
     52      -8.9467      2.00000
     53      -8.9169      2.00000
     54      -8.6916      2.00000
     55      -8.5071      2.00000
     56      -8.3561      2.00000
     57      -8.2663      2.00000
     58      -8.2539      2.00000
     59      -8.1396      2.00000
     60      -8.1393      2.00000
     61      -7.9778      2.00000
     62      -7.9716      2.00000
     63      -7.9243      2.00000
     64      -7.8766      2.00000
     65      -7.8243      2.00000
     66      -7.8090      2.00000
     67      -7.7158      2.00000
     68      -7.6863      2.00000
     69      -7.5486      2.00000
     70      -7.4954      2.00000
     71      -7.2112      2.00000
     72      -6.7539      2.00000
     73      -6.7525      2.00000
     74      -6.3597      2.00000
     75      -6.3441      2.00000
     76      -6.2274      2.00000
     77      -6.1428      2.00000
     78      -6.1395      2.00000
     79      -5.9503      2.00000
     80      -5.9473      2.00000
     81      -5.8443      2.00000
     82      -5.7782      2.00000
     83      -5.5841      2.00000
     84      -5.5064      2.00000
     85      -5.4014      2.00000
     86      -5.2649      2.00000
     87      -5.0390      2.00000
     88      -4.9503      2.00000
     89      -4.9287      2.00000
     90      -4.8310      2.00000
     91      -4.7105      2.00000
     92      -4.1742      2.00000
     93      -3.2878      2.00000
     94      -3.2331      2.00000
     95      -3.1869      2.00000
     96      -2.9700      2.00000
     97      -2.8558      2.00000
     98      -1.9272      1.99739
     99      -1.6034      0.00014
    100      -1.5919      0.00008
    101      -0.3707      0.00000
    102      -0.2942      0.00000
    103      -0.1507      0.00000
    104      -0.0903      0.00000
    105      -0.0867      0.00000
    106       0.4969      0.00000
    107       1.1150      0.00000
    108       1.3249      0.00000
    109       1.5815      0.00000
    110       1.8239      0.00000
    111       1.9347      0.00000
    112       2.1116      0.00000
    113       2.4871      0.00000
    114       2.7784      0.00000
    115       2.8061      0.00000
    116       2.9287      0.00000
    117       2.9774      0.00000
    118       3.1102      0.00000
    119       3.2518      0.00000
    120       3.2857      0.00000
    121       3.4566      0.00000
    122       3.4992      0.00000
    123       4.0355      0.00000
    124       4.5209      0.00000

 k-point     7 :       0.0000    1.1000    0.0000
  band No.  band energies     occupation 
      1     -20.8741      2.00000
      2     -20.1615      2.00000
      3     -20.1025      2.00000
      4     -20.0040      2.00000
      5     -19.9045      2.00000
      6     -19.8266      2.00000
      7     -19.4768      2.00000
      8     -18.4443      2.00000
      9     -18.3077      2.00000
     10     -18.1214      2.00000
     11     -18.0335      2.00000
     12     -17.8852      2.00000
     13     -17.6829      2.00000
     14     -17.5562      2.00000
     15     -17.4060      2.00000
     16     -17.1889      2.00000
     17     -17.0267      2.00000
     18     -16.9507      2.00000
     19     -16.3054      2.00000
     20     -15.2361      2.00000
     21     -15.2076      2.00000
     22     -15.1965      2.00000
     23     -15.0149      2.00000
     24     -14.9259      2.00000
     25     -14.4841      2.00000
     26     -14.1971      2.00000
     27     -14.1755      2.00000
     28     -14.0440      2.00000
     29     -13.8704      2.00000
     30     -13.8606      2.00000
     31     -13.4140      2.00000
     32     -13.1833      2.00000
     33     -12.9457      2.00000
     34     -12.6690      2.00000
     35     -12.4214      2.00000
     36     -12.3372      2.00000
     37     -11.5056      2.00000
     38     -10.8182      2.00000
     39     -10.7716      2.00000
     40     -10.7249      2.00000
     41     -10.5413      2.00000
     42     -10.4697      2.00000
     43     -10.4322      2.00000
     44     -10.2303      2.00000
     45     -10.1077      2.00000
     46     -10.1058      2.00000
     47      -9.8473      2.00000
     48      -9.8358      2.00000
     49      -9.3843      2.00000
     50      -9.2007      2.00000
     51      -9.1748      2.00000
     52      -8.9605      2.00000
     53      -8.9561      2.00000
     54      -8.7027      2.00000
     55      -8.5591      2.00000
     56      -8.3117      2.00000
     57      -8.2687      2.00000
     58      -8.2330      2.00000
     59      -8.1309      2.00000
     60      -8.0592      2.00000
     61      -8.0047      2.00000
     62      -7.9287      2.00000
     63      -7.9243      2.00000
     64      -7.9015      2.00000
     65      -7.8088      2.00000
     66      -7.7973      2.00000
     67      -7.7283      2.00000
     68      -7.7062      2.00000
     69      -7.5754      2.00000
     70      -7.5326      2.00000
     71      -7.2917      2.00000
     72      -6.7436      2.00000
     73      -6.7421      2.00000
     74      -6.2990      2.00000
     75      -6.2879      2.00000
     76      -6.1677      2.00000
     77      -6.1419      2.00000
     78      -6.1296      2.00000
     79      -5.9811      2.00000
     80      -5.9557      2.00000
     81      -5.8524      2.00000
     82      -5.7923      2.00000
     83      -5.6650      2.00000
     84      -5.5204      2.00000
     85      -5.3586      2.00000
     86      -5.2267      2.00000
     87      -5.0403      2.00000
     88      -4.9354      2.00000
     89      -4.9216      2.00000
     90      -4.8768      2.00000
     91      -4.7769      2.00000
     92      -4.1944      2.00000
     93      -3.2403      2.00000
     94      -3.1894      2.00000
     95      -3.1466      2.00000
     96      -2.9756      2.00000
     97      -2.8914      2.00000
     98      -1.9246      1.99704
     99      -1.5980      0.00011
    100      -1.5907      0.00008
    101      -0.3495      0.00000
    102      -0.2897      0.00000
    103      -0.1945      0.00000
    104      -0.1262      0.00000
    105      -0.1176      0.00000
    106       0.4971      0.00000
    107       1.2076      0.00000
    108       1.3831      0.00000
    109       1.5987      0.00000
    110       1.8167      0.00000
    111       1.8742      0.00000
    112       2.0242      0.00000
    113       2.4620      0.00000
    114       2.8331      0.00000
    115       2.9530      0.00000
    116       2.9400      0.00000
    117       3.0018      0.00000
    118       3.1590      0.00000
    119       3.2130      0.00000
    120       3.2439      0.00000
    121       3.3920      0.00000
    122       3.4933      0.00000
    123       4.4637      0.00000
    124       4.5458      0.00000

 k-point     8 :       0.0000    1.0750    0.0000
  band No.  band energies     occupation 
      1     -20.8780      2.00000
      2     -20.1253      2.00000
      3     -20.0851      2.00000
      4     -19.9988      2.00000
      5     -19.9300      2.00000
      6     -19.8668      2.00000
      7     -19.4922      2.00000
      8     -18.3824      2.00000
      9     -18.2618      2.00000
     10     -18.1276      2.00000
     11     -18.0424      2.00000
     12     -17.9515      2.00000
     13     -17.7146      2.00000
     14     -17.4883      2.00000
     15     -17.3712      2.00000
     16     -17.1885      2.00000
     17     -17.0691      2.00000
     18     -17.0214      2.00000
     19     -16.3284      2.00000
     20     -15.1772      2.00000
     21     -15.1561      2.00000
     22     -15.1419      2.00000
     23     -14.9979      2.00000
     24     -14.9395      2.00000
     25     -14.4866      2.00000
     26     -14.2092      2.00000
     27     -14.1951      2.00000
     28     -14.1131      2.00000
     29     -13.8945      2.00000
     30     -13.8880      2.00000
     31     -13.4234      2.00000
     32     -13.0937      2.00000
     33     -12.8989      2.00000
     34     -12.6797      2.00000
     35     -12.4747      2.00000
     36     -12.4266      2.00000
     37     -11.5313      2.00000
     38     -10.7284      2.00000
     39     -10.6838      2.00000
     40     -10.6406      2.00000
     41     -10.4961      2.00000
     42     -10.4496      2.00000
     43     -10.4307      2.00000
     44     -10.2584      2.00000
     45     -10.1910      2.00000
     46     -10.1783      2.00000
     47      -9.8788      2.00000
     48      -9.8665      2.00000
     49      -9.3427      2.00000
     50      -9.1795      2.00000
     51      -9.1716      2.00000
     52      -8.9920      2.00000
     53      -8.9906      2.00000
     54      -8.6982      2.00000
     55      -8.6040      2.00000
     56      -8.2844      2.00000
     57      -8.2668      2.00000
     58      -8.2112      2.00000
     59      -8.1236      2.00000
     60      -8.0361      2.00000
     61      -7.9719      2.00000
     62      -7.9677      2.00000
     63      -7.8856      2.00000
     64      -7.8778      2.00000
     65      -7.7954      2.00000
     66      -7.7877      2.00000
     67      -7.7407      2.00000
     68      -7.7204      2.00000
     69      -7.5968      2.00000
     70      -7.5704      2.00000
     71      -7.3786      2.00000
     72      -6.7342      2.00000
     73      -6.7324      2.00000
     74      -6.2562      2.00000
     75      -6.2156      2.00000
     76      -6.1438      2.00000
     77      -6.1192      2.00000
     78      -6.1096      2.00000
     79      -6.0154      2.00000
     80      -5.9600      2.00000
     81      -5.8653      2.00000
     82      -5.8042      2.00000
     83      -5.7441      2.00000
     84      -5.5556      2.00000
     85      -5.2907      2.00000
     86      -5.1879      2.00000
     87      -5.0393      2.00000
     88      -4.9237      2.00000
     89      -4.9213      2.00000
     90      -4.9159      2.00000
     91      -4.8460      2.00000
     92      -4.2110      2.00000
     93      -3.1941      2.00000
     94      -3.1499      2.00000
     95      -3.1149      2.00000
     96      -2.9853      2.00000
     97      -2.9282      2.00000
     98      -1.9224      1.99668
[...]
     41     -10.4150      2.00000
     42     -10.4146      2.00000
     43     -10.4110      2.00000
     44     -10.4110      2.00000
     45     -10.3993      2.00000
     46     -10.3993      2.00000
     47      -9.9167      2.00000
     48      -9.9167      2.00000
     49      -9.2457      2.00000
     50      -9.1855      2.00000
     51      -9.0841      2.00000
     52      -9.0825      2.00000
     53      -9.0824      2.00000
     54      -8.6696      2.00000
     55      -8.6694      2.00000
     56      -8.3214      2.00000
     57      -8.1574      2.00000
     58      -8.1574      2.00000
     59      -8.1020      2.00000
     60      -8.1020      2.00000
     61      -8.0962      2.00000
     62      -7.8499      2.00000
     63      -7.7885      2.00000
     64      -7.7882      2.00000
     65      -7.7763      2.00000
     66      -7.7606      2.00000
     67      -7.7603      2.00000
     68      -7.6528      2.00000
     69      -7.6525      2.00000
     70      -7.6514      2.00000
     71      -7.6251      2.00000
     72      -6.7195      2.00000
     73      -6.7193      2.00000
     74      -6.1680      2.00000
     75      -6.1338      2.00000
     76      -6.1054      2.00000
     77      -6.1051      2.00000
     78      -6.0275      2.00000
     79      -5.9729      2.00000
     80      -5.9729      2.00000
     81      -5.9339      2.00000
     82      -5.9339      2.00000
     83      -5.8205      2.00000
     84      -5.6193      2.00000
     85      -5.0930      2.00000
     86      -5.0930      2.00000
     87      -5.0501      2.00000
     88      -5.0252      2.00000
     89      -5.0252      2.00000
     90      -4.9089      2.00000
     91      -4.9082      2.00000
     92      -4.2336      2.00000
     93      -3.0866      2.00000
     94      -3.0737      2.00000
     95      -3.0737      2.00000
     96      -3.0226      2.00000
     97      -3.0225      2.00000
     98      -1.9187      1.99602
     99      -1.5885      0.00007
    100      -1.5881      0.00007
    101      -0.2857      0.00000
    102      -0.2755      0.00000
    103      -0.2754      0.00000
    104      -0.2008      0.00000
    105      -0.2008      0.00000
    106       0.4957      0.00000
    107       1.5854      0.00000
    108       1.5854      0.00000
    109       1.6072      0.00000
    110       1.6690      0.00000
    111       1.6690      0.00000
    112       1.8040      0.00000
    113       2.4228      0.00000
    114       3.0490      0.00000
    115       3.0491      0.00000
    116       3.0497      0.00000
    117       3.0911      0.00000
    118       3.0912      0.00000
    119       3.2283      0.00000
    120       3.3377      0.00000
    121       3.3627      0.00000
    122       3.4809      0.00000
    123       3.4413      0.00000
    124       4.6303      0.00000


--------------------------------------------------------------------------------------------------------


 soft charge-density along one line, spin component           1
         0         1         2         3         4         5         6         7         8         9
 total charge-density along one line
 
 pseudopotential strength for first ion, spin component:           1
 10.669   0.014   0.000   0.000   0.001  -0.000  -0.000  -0.001
  0.014  -0.001  -0.000  -0.000  -0.000  -0.000  -0.000  -0.000
  0.000  -0.000  -4.204  -0.000  -0.001  -0.013  -0.000   0.000
  0.000  -0.000  -0.000  -4.194  -0.000  -0.000  -0.009  -0.000
  0.001  -0.000  -0.001  -0.000  -4.205   0.000  -0.000  -0.013
 -0.000  -0.000  -0.013  -0.000   0.000  -1.092  -0.000  -0.000
 -0.000  -0.000  -0.000  -0.009  -0.000  -0.000  -1.092  -0.000
 -0.001  -0.000   0.000  -0.000  -0.013  -0.000  -0.000  -1.092
 total augmentation occupancy for first ion, spin component:           1
  2.000   0.000   0.000   0.000   0.000   0.000   0.000   0.000
  0.000   0.000   0.000   0.000   0.000   0.000   0.000   0.000
  0.000   0.000   0.667   0.000   0.000   0.000   0.000   0.000
  0.000   0.000   0.000   0.667   0.000   0.000   0.000   0.000
  0.000   0.000   0.000   0.000   0.667   0.000   0.000   0.000
  0.000   0.000   0.000   0.000   0.000   0.000   0.000   0.000
  0.000   0.000   0.000   0.000   0.000   0.000   0.000   0.000
  0.000   0.000   0.000   0.000   0.000   0.000   0.000   0.000


------------------------ aborting loop because EDIFF is reached ----------------------------------------


    CHARGE:  cpu time    1.8789: real time    3.7529
    FORLOC:  cpu time    0.0813: real time    0.1646
    FORNL :  cpu time    2.9431: real time    5.9171
    STRESS:  cpu time    9.2080: real time   18.7677
    FORHAR:  cpu time    0.1249: real time    0.2431
    OFIELD:  cpu time    0.0008: real time    0.0007

  FORCE on cell =-STRESS in cart. coord.  units (eV):
  Direction    XX          YY          ZZ          XY          YZ          ZX
  --------------------------------------------------------------------------------------
  Alpha Z   138.85708   138.85708   138.85708
  Ewald   15617.60799 15617.60799-22104.95500    -0.00000     0.00000     0.00000
  Hartree 15168.90066 15168.90065-14829.18748    -0.00001    -0.00000    -0.00000
  E(xc)    -707.36476  -707.36476  -707.36476     0.00000     0.00000     0.00000
  Local  -33046.80417-33046.80873 34235.09585    -0.00395    -0.00217    -0.00125
  n-local   -92.83221   -93.11146   -91.25531     0.00430    -0.00006    -0.00003
  augment    -6.54020    -6.53870    -5.86753     0.00130     0.00004     0.00002
  Kinetic  2900.42476  2893.52202  3356.03849    -0.05700     0.00020     0.00015
  Fock        0.00000     0.00000     0.00000     0.00000     0.00000     0.00000
  -------------------------------------------------------------------------------------
  Total     -31.34338   -31.34338    -8.63866     0.00000    -0.00000    -0.00000
  in kB     -38.32794   -38.32794   -10.56370     0.00000    -0.00000    -0.00000
  external pressure =      -29.07 kB  Pullay stress =        0.00 kB


 VOLUME and BASIS-vectors are now :
 -----------------------------------------------------------------------------
  energy-cutoff  :      400.00
  volume of cell :     1310.21
      direct lattice vectors                 reciprocal lattice vectors
    12.300000000  0.000000000  0.000000000     0.081300813  0.046939046  0.000000000
    -6.150000000 10.652112467  0.000000000     0.000000000  0.093878093  0.000000000
     0.000000000  0.000000000 10.000000000     0.000000000  0.000000000  0.100000000

  length of vectors
    12.300000000 12.300000000 10.000000000     0.093878093  0.093878093  0.100000000


 FORCES acting on ions
    electron-ion (+dipol)            ewald-force                    non-local-force                 convergence-correction
 -----------------------------------------------------------------------------------------------
   -.109E+02 -.117E+02 0.325E-07   0.904E+01 0.103E+02 0.745E-16   0.655E+00 0.686E+00 -.159E-21   0.570E+00 0.907E+00 -.346E-08
   -.177E-03 -.291E+02 0.635E-07   -.129E-10 0.268E+02 0.551E-16   -.694E-17 -.480E+00 0.000E+00   -.222E-03 0.168E+01 0.607E-08
   0.109E+02 -.117E+02 0.590E-07   -.904E+01 0.103E+02 0.840E-16   -.655E+00 0.686E+00 0.000E+00   -.570E+00 0.907E+00 -.335E-10
   0.321E+01 -.185E+01 0.348E-11   -.279E+01 0.161E+01 0.543E-16   -.816E-01 0.471E-01 0.000E+00   -.253E+00 0.146E+00 -.108E-11
   -.321E+01 -.185E+01 0.166E-07   0.279E+01 0.161E+01 0.615E-16   0.816E-01 0.471E-01 0.000E+00   0.253E+00 0.146E+00 -.232E-09
   -.156E+02 -.355E+01 -.265E-07   0.135E+02 0.266E+01 0.986E-17   0.922E+00 0.224E+00 -.106E-21   0.107E+01 0.407E-01 -.151E-08
   -.105E+03 -.605E+02 0.446E-08   0.982E+02 0.567E+02 0.408E-16   0.323E+01 0.187E+01 0.132E-22   0.202E+01 0.116E+01 -.145E-06
   0.105E+03 -.605E+02 0.715E-12   -.982E+02 0.567E+02 0.789E-16   -.323E+01 0.187E+01 0.000E+00   -.202E+01 0.116E+01 0.136E-11
   0.156E+02 -.355E+01 -.590E-07   -.135E+02 0.266E+01 0.601E-16   -.922E+00 0.224E+00 -.106E-21   -.107E+01 0.407E-01 0.315E-10
   -.221E-03 -.778E+00 -.424E-07   0.301E-11 0.622E+00 0.341E-16   0.152E-17 -.462E-02 0.000E+00   -.142E-03 -.482E-01 -.465E-08
   -.530E+01 0.229E+01 -.310E-07   0.466E+01 -.171E+01 0.102E-16   0.172E-02 -.123E+00 0.000E+00   0.447E+00 -.469E+00 -.768E-09
   -.252E+02 0.146E+02 0.210E-11   0.232E+02 -.134E+02 0.287E-17   -.416E+00 0.240E+00 0.794E-22   0.145E+01 -.840E+00 0.361E-11
   -.347E-03 0.121E+03 -.445E-08   -.616E-11 -.113E+03 0.359E-16   0.000E+00 -.373E+01 0.000E+00   -.454E-03 -.233E+01 0.145E-06
   0.252E+02 0.146E+02 -.635E-07   -.232E+02 -.134E+02 -.657E-17   0.416E+00 0.240E+00 -.529E-22   -.145E+01 -.840E+00 -.607E-08
   0.530E+01 0.229E+01 -.468E-07   -.466E+01 -.171E+01 0.209E-16   -.172E-02 -.123E+00 -.265E-22   -.447E+00 -.469E+00 -.426E-09
   -.156E-03 0.902E-04 0.130E-12   -.226E-12 0.139E-10 0.141E-16   0.190E-18 -.678E-19 0.000E+00   -.157E-03 0.908E-04 -.395E-11
   -.463E+01 0.344E+01 0.310E-07   0.381E+01 -.318E+01 0.627E-16   0.108E+00 0.602E-01 0.165E-22   0.630E+00 -.152E+00 0.766E-09
   -.473E+01 0.153E+02 0.265E-07   0.444E+01 -.130E+02 0.538E-16   0.267E+00 -.911E+00 -.159E-21   0.500E+00 -.947E+00 0.151E-08
   0.473E+01 0.153E+02 -.325E-07   -.444E+01 -.130E+02 0.111E-16   -.267E+00 -.911E+00 0.794E-22   -.500E+00 -.947E+00 0.345E-08
   0.463E+01 0.344E+01 -.159E-07   -.381E+01 -.318E+01 0.785E-17   -.108E+00 0.602E-01 0.000E+00   -.630E+00 -.152E+00 -.687E-09
   -.667E+00 -.573E+01 0.159E-07   0.853E+00 0.489E+01 -.114E-17   -.106E+00 0.631E-01 0.000E+00   -.183E+00 0.622E+00 0.676E-09
   0.666E+00 -.573E+01 0.468E-07   -.853E+00 0.489E+01 0.590E-16   0.106E+00 0.631E-01 0.000E+00   0.183E+00 0.622E+00 0.421E-09
   0.674E+00 0.389E+00 0.424E-07   -.539E+00 -.311E+00 0.874E-16   0.401E-02 0.231E-02 -.185E-21   0.417E-01 0.242E-01 0.465E-08
   -.170E-03 0.371E+01 -.166E-07   0.284E-10 -.322E+01 0.705E-16   -.173E-17 -.942E-01 0.000E+00   -.166E-03 -.292E+00 0.223E-09
   -.674E+00 0.389E+00 0.498E-12   0.539E+00 -.311E+00 0.693E-17   -.401E-02 0.231E-02 0.106E-21   -.420E-01 0.243E-01 -.547E-11
   -.177E+02 -.343E+02 0.555E-07   0.183E+02 0.316E+02 -.812E-16   0.896E+00 0.180E+01 0.106E-21   0.435E+00 0.210E+01 -.307E-08
   0.177E+02 -.343E+02 0.318E-07   -.183E+02 0.316E+02 -.371E-16   -.896E+00 0.180E+01 0.106E-21   -.434E+00 0.210E+01 -.155E-07
   0.925E+01 -.534E+01 -.536E-11   -.851E+01 0.491E+01 -.684E-16   -.899E-01 0.519E-01 0.529E-22   -.724E+00 0.418E+00 -.140E-11
   0.163E-03 -.119E+01 0.282E-07   -.219E-10 0.114E+01 -.471E-16   0.867E-18 0.307E-02 -.265E-22   0.331E-03 0.432E-01 -.341E-09
   -.925E+01 -.534E+01 0.448E-07   0.851E+01 0.491E+01 -.678E-16   0.899E-01 0.519E-01 0.000E+00   0.725E+00 0.418E+00 0.292E-09
   -.386E+02 0.178E+01 0.238E-07   0.365E+02 0.290E-10 -.987E-16   0.201E+01 -.124E+00 -.212E-21   0.204E+01 -.675E+00 -.543E-08
   0.386E+02 0.178E+01 -.318E-07   -.365E+02 0.249E-10 -.119E-15   -.201E+01 -.124E+00 0.529E-22   -.204E+01 -.675E+00 0.155E-07
   0.634E+01 0.719E+00 -.356E-08   -.556E+01 0.430E-11 -.961E-16   -.327E+00 -.142E+00 0.000E+00   -.509E+00 -.282E+00 -.293E-09
   -.634E+01 0.719E+00 0.130E-07   0.556E+01 0.239E-10 -.535E-16   0.327E+00 -.142E+00 -.265E-22   0.510E+00 -.282E+00 -.641E-09
   -.885E+01 0.511E+01 -.234E-11   0.851E+01 -.491E+01 -.126E-15   0.226E-01 -.130E-01 -.165E-22   0.705E+00 -.407E+00 0.129E-11
   -.208E+02 0.325E+02 -.238E-07   0.183E+02 -.316E+02 -.665E-16   0.111E+01 -.168E+01 0.794E-22   0.160E+01 -.143E+01 0.544E-08
   0.208E+02 0.325E+02 -.555E-07   -.183E+02 -.316E+02 -.148E-15   -.111E+01 -.168E+01 0.529E-22   -.160E+01 -.143E+01 0.307E-08
   0.885E+01 0.511E+01 -.273E-07   -.851E+01 -.491E+01 -.153E-15   -.226E-01 -.130E-01 0.165E-22   -.704E+00 -.407E+00 0.131E-08
   0.153E-03 0.199E+01 -.108E-07   0.304E-11 -.114E+01 -.123E-15   -.867E-18 -.148E+00 0.529E-22   0.331E-03 -.618E+00 0.162E-09
   -.173E+01 -.997E+00 0.108E-07   0.991E+00 0.572E+00 -.121E-15   0.128E+00 0.739E-01 -.265E-22   0.535E+00 0.309E+00 -.166E-09
   -.379E+01 0.513E+01 -.130E-07   0.278E+01 -.482E+01 -.661E-16   0.287E+00 -.213E+00 0.000E+00   0.499E+00 -.301E+00 0.635E-09
   0.159E-03 0.107E+02 -.447E-07   0.758E-11 -.982E+01 -.688E-16   -.867E-18 -.104E+00 0.000E+00   0.300E-03 -.837E+00 -.296E-09
   0.379E+01 0.513E+01 -.165E-07   -.278E+01 -.482E+01 -.947E-16   -.287E+00 -.213E+00 0.106E-21   -.499E+00 -.301E+00 0.157E-08
   0.173E+01 -.997E+00 0.130E-10   -.991E+00 0.572E+00 -.106E-15   -.128E+00 0.739E-01 -.265E-22   -.535E+00 0.309E+00 -.690E-11
   0.157E-03 -.102E+02 0.273E-07   0.170E-10 0.982E+01 -.811E-16   0.217E-18 0.261E-01 0.000E+00   0.300E-03 0.813E+00 -.132E-08
   0.255E+01 -.585E+01 0.357E-08   -.278E+01 0.482E+01 -.948E-16   -.408E-01 0.354E+00 0.000E+00   -.106E-01 0.582E+00 0.289E-09
   0.103E+01 0.595E+00 -.282E-07   -.991E+00 -.572E+00 -.886E-16   -.266E-02 -.153E-02 -.106E-21   -.373E-01 -.219E-01 0.336E-09
   -.103E+01 0.595E+00 0.148E-10   0.991E+00 -.572E+00 -.623E-16   0.266E-02 -.153E-02 0.926E-22   0.379E-01 -.219E-01 -.743E-11
   -.255E+01 -.585E+01 0.165E-07   0.278E+01 0.482E+01 -.101E-15   0.408E-01 0.354E+00 -.265E-22   0.112E-01 0.582E+00 -.158E-08
 -----------------------------------------------------------------------------------------------
   0.533E-04 -.308E-04 0.154E-09   0.933E-14 -.933E-13 -.118E-14   0.198E-14 0.117E-14 -.248E-21   0.392E-02 -.227E-02 -.978E-10
 
 
 POSITION                                       TOTAL-FORCE (eV/Angst)
 -----------------------------------------------------------------------------------
      0.00000      0.00000      5.00000        -0.609985      0.190467     -0.000000
      2.46000      0.00000      5.00000         0.000000     -1.151195     -0.000000
      4.92000      0.00000      5.00000         0.609985      0.190467     -0.000000
      7.38000      0.00000      5.00000         0.085281     -0.049237     -0.000000
      9.84000      0.00000      5.00000        -0.085281     -0.049237     -0.000000
     -1.23000      2.13042      5.00000        -0.140043     -0.623496     -0.000000
      1.23000      2.13042      5.00000        -1.301853     -0.751625      0.000000
      3.69000      2.13042      5.00000         1.301853     -0.751625     -0.000000
      6.15000      2.13042      5.00000         0.140043     -0.623496      0.000000
      8.61000      2.13042      5.00000        -0.000000     -0.209222     -0.000000
     -2.46000      4.26084      5.00000        -0.190181     -0.008782     -0.000000
      0.00000      4.26084      5.00000        -0.996964      0.575597     -0.000000
      2.46000      4.26084      5.00000         0.000000      1.503250     -0.000000
      4.92000      4.26084      5.00000         0.996964      0.575597      0.000000
      7.38000      4.26084      5.00000         0.190181     -0.008782      0.000000
     -3.69000      6.39127      5.00000         0.000000      0.000000     -0.000000
     -1.23000      6.39127      5.00000        -0.087485      0.169092     -0.000000
      1.23000      6.39127      5.00000         0.469942      0.433029     -0.000000
      3.69000      6.39127      5.00000        -0.469942      0.433029     -0.000000
      6.15000      6.39127      5.00000         0.087485      0.169092     -0.000000
     -4.92000      8.52169      5.00000        -0.102696     -0.160311      0.000000
     -2.46000      8.52169      5.00000         0.102696     -0.160311      0.000000
      0.00000      8.52169      5.00000         0.181191      0.104611     -0.000000
      2.46000      8.52169      5.00000         0.000000      0.098474     -0.000000
      4.92000      8.52169      5.00000        -0.181191      0.104611     -0.000000
      1.23000      0.71014      5.00000         1.868786      1.269112     -0.000000
      3.69000      0.71014      5.00000        -1.868786      1.269112     -0.000000
      6.15000      0.71014      5.00000        -0.076227      0.044010     -0.000000
      8.61000      0.71014      5.00000         0.000000      0.001027      0.000000
     11.07000      0.71014      5.00000         0.076227      0.044010      0.000000
      0.00000      2.84056      5.00000         2.033476      0.983860     -0.000000
      4.92000      2.84056      5.00000        -2.033476      0.983860     -0.000000
      7.38000      2.84056      5.00000        -0.058364      0.295555     -0.000000
      9.84000      2.84056      5.00000         0.058364      0.295555     -0.000000
     -1.23000      4.97099      5.00000         0.386491     -0.223140     -0.000000
      1.23000      4.97099      5.00000         0.164690     -2.252972      0.000000
      3.69000      4.97099      5.00000        -0.164690     -2.252972      0.000000
      6.15000      4.97099      5.00000        -0.386491     -0.223140     -0.000000
      8.61000      4.97099      5.00000         0.000000      0.083607     -0.000000
     -2.46000      7.10141      5.00000        -0.072405     -0.041803     -0.000000
      0.00000      7.10141      5.00000        -0.226776     -0.198322     -0.000000
      2.46000      7.10141      5.00000         0.000000     -0.088019     -0.000000
      4.92000      7.10141      5.00000         0.226776     -0.198322     -0.000000
      7.38000      7.10141      5.00000         0.072405     -0.041803      0.000000
     -3.69000      9.23183      5.00000         0.000000      0.446281     -0.000000
     -1.23000      9.23183      5.00000        -0.285140     -0.097233      0.000000
      1.23000      9.23183      5.00000        -0.000889     -0.000513     -0.000000
      3.69000      9.23183      5.00000         0.000889     -0.000513     -0.000000
      6.15000      9.23183      5.00000         0.285140     -0.097233      0.000000
 -----------------------------------------------------------------------------------
    total drift:                                0.003977     -0.002296      0.000000


--------------------------------------------------------------------------------------------------------



  FREE ENERGIE OF THE ION-ELECTRON SYSTEM (eV)
  ---------------------------------------------------
  free  energy   TOTEN  =      -486.08273527 eV

  energy  without entropy=     -486.08191998  energy(sigma->0) =     -486.08232762
 


--------------------------------------------------------------------------------------------------------


    POTLOK:  cpu time    0.0655: real time    0.1385


--------------------------------------------------------------------------------------------------------


 stress matrix after NEB project (eV)
    -31.34338      0.00000     -0.00000
      0.00000    -31.34338     -0.00000
      0.00000     -0.00000     -8.63866
  FORCES: max atom, RMS     2.258983    0.962431
  FORCE total and by dimension    6.737014    2.252972
  Stress total and by dimension   45.160167   31.343375
 writing wavefunctions
     LOOP+:  cpu time  227.8216: real time  457.2752
    4ORBIT:  cpu time    0.0000: real time    0.0000

 total amount of memory used by VASP MPI-rank0   685944. kBytes
=======================================================================

   base      :      30000. kBytes
   nonlr-proj:       5203. kBytes
   fftplans  :      13053. kBytes
   grid      :      24768. kBytes
   one-center:        150. kBytes
   wavefun   :     612770. kBytes
 
  
  
 General timing and accounting informations for this job:
 ========================================================
  
                  Total CPU time used (sec):      242.281
                            User time (sec):      211.531
                          System time (sec):       30.750
                         Elapsed time (sec):      489.831
  
                   Maximum memory used (kb):     1569464.
                   Average memory used (kb):           0.
  
                          Minor page faults:       445796
                          Major page faults:            0
                 Voluntary context switches:        45946
