  51  51   0   0
  0.5138078E+02  0.1230000E-08  0.1230000E-08  0.2000000E-08  0.5000000E-15
  1.000000000000000E-004
  CAR 
                                         
      5.97617440    -33.53544672  301     -3.01693574      1.00000000
    -33.535  0.0000E+00  0.0000E+00
    -33.404  0.0000E+00  0.0000E+00
    -33.272  0.0000E+00  0.0000E+00
    -33.140  0.0000E+00  0.0000E+00
    -33.009  0.0000E+00  0.0000E+00
    -32.877  0.0000E+00  0.0000E+00
    -32.745  0.0000E+00  0.0000E+00
    -32.614  0.0000E+00  0.0000E+00
    -32.482  0.0000E+00  0.0000E+00
    -32.350  0.0000E+00  0.0000E+00
    -32.218  0.0000E+00  0.0000E+00
    -32.087  0.0000E+00  0.0000E+00
    -31.955  0.8202E-08  0.1080E-08
    -31.823  0.1344E+00  0.1770E-01
    -31.692  0.1372E+02  0.1824E+01
    -31.560  0.1336E+01  0.2000E+01
    -31.428  0.2889E-05  0.2000E+01
    -31.296  0.0000E+00  0.2000E+01
    -31.165  0.0000E+00  0.2000E+01
    -31.033  0.0000E+00  0.2000E+01
    -30.901  0.0000E+00  0.2000E+01
    -30.770  0.0000E+00  0.2000E+01
    -30.638  0.0000E+00  0.2000E+01
    -30.506  0.0000E+00  0.2000E+01
    -30.375  0.0000E+00  0.2000E+01
    -30.243  0.0000E+00  0.2000E+01
    -30.111  0.0000E+00  0.2000E+01
    -29.979  0.0000E+00  0.2000E+01
    -29.848  0.0000E+00  0.2000E+01
    -29.716  0.0000E+00  0.2000E+01
    -29.584  0.0000E+00  0.2000E+01
    -29.453  0.0000E+00  0.2000E+01
    -29.321  0.0000E+00  0.2000E+01
    -29.189  0.0000E+00  0.2000E+01
    -29.057  0.0000E+00  0.2000E+01
    -28.926  0.0000E+00  0.2000E+01
    -28.794  0.0000E+00  0.2000E+01
    -28.662  0.0000E+00  0.2000E+01
    -28.531  0.0000E+00  0.2000E+01
    -28.399  0.0000E+00  0.2000E+01
    -28.267  0.0000E+00  0.2000E+01
    -28.136  0.0000E+00  0.2000E+01
    -28.004  0.0000E+00  0.2000E+01
    -27.872  0.0000E+00  0.2000E+01
    -27.740  0.0000E+00  0.2000E+01
    -27.609  0.0000E+00  0.2000E+01
    -27.477  0.0000E+00  0.2000E+01
    -27.345  0.0000E+00  0.2000E+01
    -27.214  0.0000E+00  0.2000E+01
    -27.082  0.0000E+00  0.2000E+01
    -26.950  0.0000E+00  0.2000E+01
    -26.818  0.0000E+00  0.2000E+01
    -26.687  0.0000E+00  0.2000E+01
    -26.555  0.0000E+00  0.2000E+01
    -26.423  0.0000E+00  0.2000E+01
    -26.292  0.0000E+00  0.2000E+01
    -26.160  0.0000E+00  0.2000E+01
    -26.028  0.0000E+00  0.2000E+01
    -25.897  0.0000E+00  0.2000E+01
    -25.765  0.0000E+00  0.2000E+01
    -25.633  0.0000E+00  0.2000E+01
    -25.501  0.0000E+00  0.2000E+01
    -25.370  0.0000E+00  0.2000E+01
    -25.238  0.0000E+00  0.2000E+01
    -25.106  0.0000E+00  0.2000E+01
    -24.975  0.0000E+00  0.2000E+01
    -24.843  0.0000E+00  0.2000E+01
    -24.711  0.0000E+00  0.2000E+01
    -24.579  0.0000E+00  0.2000E+01
    -24.448  0.0000E+00  0.2000E+01
    -24.316  0.0000E+00  0.2000E+01
    -24.184  0.0000E+00  0.2000E+01
    -24.053  0.0000E+00  0.2000E+01
    -23.921  0.0000E+00  0.2000E+01
    -23.789  0.0000E+00  0.2000E+01
    -23.658  0.0000E+00  0.2000E+01
    -23.526  0.0000E+00  0.2000E+01
    -23.394  0.0000E+00  0.2000E+01
    -23.262  0.0000E+00  0.2000E+01
    -23.131  0.0000E+00  0.2000E+01
    -22.999  0.0000E+00  0.2000E+01
    -22.867  0.0000E+00  0.2000E+01
    -22.736  0.0000E+00  0.2000E+01
    -22.604  0.0000E+00  0.2000E+01
    -22.472  0.1045E-07  0.2000E+01
    -22.340  0.4138E-01  0.2005E+01
    -22.209  0.4475E+01  0.2595E+01
    -22.077  0.9178E+01  0.3804E+01
    -21.945  0.4889E+01  0.4447E+01
    -21.814  0.1074E+02  0.5862E+01
    -21.682  0.5539E+01  0.6591E+01
    -21.550  0.7648E+01  0.7599E+01
    -21.419  0.1280E+02  0.9285E+01
    -21.287  0.5425E+01  0.9999E+01
    -21.155  0.3809E+01  0.1050E+02
    -21.023  0.9247E+01  0.1172E+02
    -20.892  0.1082E+02  0.1314E+02
    -20.760  0.9969E+01  0.1446E+02
    -20.628  0.8312E+01  0.1555E+02
    -20.497  0.2077E+00  0.1558E+02
    -20.365  0.1318E+02  0.1732E+02
    -20.233  0.3914E+01  0.1783E+02
    -20.101  0.1863E+02  0.2028E+02
    -19.970  0.1225E+01  0.2045E+02
    -19.838  0.3630E+01  0.2092E+02
    -19.706  0.1394E+02  0.2276E+02
    -19.575  0.8464E+01  0.2388E+02
    -19.443  0.6001E+01  0.2467E+02
    -19.311  0.6987E+01  0.2559E+02
    -19.180  0.1396E+02  0.2742E+02
    -19.048  0.7571E+01  0.2842E+02
    -18.916  0.4688E+01  0.2904E+02
    -18.784  0.5207E+01  0.2972E+02
    -18.653  0.5295E+01  0.3042E+02
    -18.521  0.1382E+02  0.3224E+02
    -18.389  0.1141E+02  0.3375E+02
    -18.258  0.8620E+01  0.3488E+02
    -18.126  0.4951E+01  0.3553E+02
    -17.994  0.1521E+02  0.3754E+02
    -17.863  0.4796E+01  0.3817E+02
    -17.731  0.3713E+01  0.3866E+02
    -17.599  0.5980E+01  0.3944E+02
    -17.467  0.1572E+02  0.4152E+02
    -17.336  0.4155E+01  0.4206E+02
    -17.204  0.2133E+02  0.4487E+02
    -17.072  0.6799E+01  0.4577E+02
    -16.941  0.3475E+01  0.4622E+02
    -16.809  0.8932E+01  0.4740E+02
    -16.677  0.4162E+01  0.4795E+02
    -16.545  0.8787E+01  0.4911E+02
    -16.414  0.8892E+01  0.5028E+02
    -16.282  0.3043E+01  0.5068E+02
    -16.150  0.9348E+01  0.5191E+02
    -16.019  0.5876E+01  0.5268E+02
    -15.887  0.1301E+02  0.5440E+02
    -15.755  0.1190E+02  0.5596E+02
    -15.624  0.2154E+01  0.5625E+02
    -15.492  0.4244E+01  0.5681E+02
    -15.360  0.2712E+01  0.5716E+02
    -15.228  0.1022E+02  0.5851E+02
    -15.097  0.2211E+02  0.6142E+02
    -14.965  0.4666E+01  0.6204E+02
    -14.833  0.1152E+02  0.6355E+02
    -14.702  0.1036E+02  0.6492E+02
    -14.570  0.6386E+01  0.6576E+02
    -14.438  0.1593E+02  0.6786E+02
    -14.306  0.4460E+01  0.6844E+02
    -14.175  0.1112E+01  0.6859E+02
    -14.043  0.4002E+01  0.6912E+02
    -13.911  0.1021E+02  0.7046E+02
    -13.780  0.1694E+02  0.7269E+02
    -13.648  0.1757E+02  0.7501E+02
    -13.516  0.1699E+01  0.7523E+02
    -13.385  0.2455E+01  0.7556E+02
    -13.253  0.5445E+00  0.7563E+02
    -13.121  0.1129E+02  0.7711E+02
    -12.989  0.1388E+02  0.7894E+02
    -12.858  0.2042E+02  0.8163E+02
    -12.726  0.1110E+01  0.8178E+02
    -12.594  0.5064E+01  0.8244E+02
    -12.463  0.1744E+02  0.8474E+02
    -12.331  0.1081E+02  0.8617E+02
    -12.199  0.3602E+01  0.8664E+02
    -12.067  0.3288E+01  0.8707E+02
    -11.936  0.1203E+02  0.8866E+02
    -11.804  0.3745E+01  0.8915E+02
    -11.672  0.1623E+02  0.9129E+02
    -11.541  0.1757E+02  0.9360E+02
    -11.409  0.1342E+02  0.9537E+02
    -11.277  0.8517E+01  0.9649E+02
    -11.146  0.5534E+01  0.9722E+02
    -11.014  0.7647E+01  0.9823E+02
    -10.882  0.1327E+02  0.9998E+02
    -10.750  0.1669E+02  0.1022E+03
    -10.619  0.2118E+01  0.1025E+03
    -10.487  0.2054E+02  0.1052E+03
    -10.355  0.3813E+01  0.1057E+03
    -10.224  0.2499E+02  0.1090E+03
    -10.092  0.2522E+02  0.1123E+03
     -9.960  0.1815E+02  0.1147E+03
     -9.828  0.1522E+02  0.1167E+03
     -9.697  0.1718E+02  0.1189E+03
     -9.565  0.2795E+02  0.1226E+03
     -9.433  0.2041E+02  0.1253E+03
     -9.302  0.2761E+02  0.1289E+03
     -9.170  0.2343E+02  0.1320E+03
     -9.038  0.2867E+02  0.1358E+03
     -8.907  0.2036E+02  0.1385E+03
     -8.775  0.1698E+02  0.1407E+03
     -8.643  0.2384E+02  0.1439E+03
     -8.511  0.1703E+02  0.1461E+03
     -8.380  0.1660E+02  0.1483E+03
     -8.248  0.1527E+02  0.1503E+03
     -8.116  0.1640E+02  0.1525E+03
     -7.985  0.2838E+02  0.1562E+03
     -7.853  0.1614E+02  0.1583E+03
     -7.721  0.1605E+02  0.1604E+03
     -7.589  0.8258E+01  0.1615E+03
     -7.458  0.1995E+01  0.1618E+03
     -7.326  0.1832E+02  0.1642E+03
     -7.194  0.3222E+02  0.1684E+03
     -7.063  0.1512E+02  0.1704E+03
     -6.931  0.4752E+01  0.1711E+03
     -6.799  0.1897E+02  0.1736E+03
     -6.668  0.1297E+02  0.1753E+03
     -6.536  0.1579E+02  0.1773E+03
     -6.404  0.7120E+01  0.1783E+03
     -6.272  0.1263E+02  0.1799E+03
     -6.141  0.1530E+02  0.1820E+03
     -6.009  0.1357E+02  0.1837E+03
     -5.877  0.2047E+02  0.1864E+03
     -5.746  0.7731E+01  0.1875E+03
     -5.614  0.1360E+02  0.1893E+03
     -5.482  0.3147E+01  0.1897E+03
     -5.350  0.8011E+01  0.1907E+03
     -5.219  0.8468E+01  0.1918E+03
     -5.087  0.1206E+02  0.1934E+03
     -4.955  0.1869E+02  0.1959E+03
     -4.824  0.1448E+02  0.1978E+03
     -4.692  0.3181E+01  0.1982E+03
     -4.560  0.7546E-01  0.1982E+03
     -4.429  0.4939E-04  0.1982E+03
     -4.297  0.3276E+01  0.1987E+03
     -4.165  0.1732E+02  0.2009E+03
     -4.033  0.4716E+01  0.2016E+03
     -3.902  0.6864E-03  0.2016E+03
     -3.770  0.4799E+00  0.2016E+03
     -3.638  0.2881E+01  0.2020E+03
     -3.507  0.3005E+00  0.2020E+03
     -3.375  0.4454E+01  0.2026E+03
     -3.243  0.1229E+02  0.2042E+03
     -3.111  0.1092E+02  0.2057E+03
     -2.980  0.2482E+01  0.2060E+03
     -2.848  0.2636E+01  0.2064E+03
     -2.716  0.9046E+01  0.2075E+03
     -2.585  0.6891E-01  0.2076E+03
     -2.453  0.1052E+00  0.2076E+03
     -2.321  0.3173E+01  0.2080E+03
     -2.190  0.2910E+01  0.2084E+03
     -2.058  0.5602E+00  0.2084E+03
     -1.926  0.4492E-05  0.2084E+03
     -1.794  0.4495E-07  0.2084E+03
     -1.663  0.2166E+00  0.2085E+03
     -1.531  0.9569E+01  0.2097E+03
     -1.399  0.1278E+02  0.2114E+03
     -1.268  0.2745E+01  0.2118E+03
     -1.136  0.1234E-03  0.2118E+03
     -1.004  0.1253E+01  0.2119E+03
     -0.873  0.1132E+02  0.2134E+03
     -0.741  0.2285E+02  0.2164E+03
     -0.609  0.1817E+02  0.2188E+03
     -0.477  0.5260E+01  0.2195E+03
     -0.346  0.2319E+00  0.2196E+03
     -0.214  0.4719E+01  0.2202E+03
     -0.082  0.1131E+02  0.2217E+03
      0.049  0.1034E+02  0.2230E+03
      0.181  0.7661E+00  0.2231E+03
      0.313  0.1657E+02  0.2253E+03
      0.445  0.7322E+01  0.2263E+03
      0.576  0.3232E+01  0.2267E+03
      0.708  0.1152E+02  0.2282E+03
      0.840  0.1638E+02  0.2304E+03
      0.971  0.6331E+01  0.2312E+03
      1.103  0.1104E+02  0.2327E+03
      1.235  0.1482E+02  0.2346E+03
      1.366  0.8527E+01  0.2357E+03
      1.498  0.1498E+02  0.2377E+03
      1.630  0.2302E+02  0.2407E+03
      1.762  0.1582E+02  0.2428E+03
      1.893  0.2721E+02  0.2464E+03
      2.025  0.8337E+01  0.2475E+03
      2.157  0.1654E+02  0.2497E+03
      2.288  0.2661E+02  0.2532E+03
      2.420  0.3284E+02  0.2575E+03
      2.552  0.8841E+01  0.2587E+03
      2.684  0.6251E+01  0.2595E+03
      2.815  0.8255E+01  0.2606E+03
      2.947  0.5940E+01  0.2614E+03
      3.079  0.9240E+01  0.2626E+03
      3.210  0.2478E+01  0.2629E+03
      3.342  0.1431E+01  0.2631E+03
      3.474  0.1159E-02  0.2631E+03
      3.605  0.2074E+01  0.2634E+03
      3.737  0.1299E+01  0.2636E+03
      3.869  0.9930E-04  0.2636E+03
      4.001  0.6375E-06  0.2636E+03
      4.132  0.2962E+00  0.2636E+03
      4.264  0.3048E+01  0.2640E+03
      4.396  0.2997E-01  0.2640E+03
      4.527  0.1838E-08  0.2640E+03
      4.659  0.0000E+00  0.2640E+03
      4.791  0.0000E+00  0.2640E+03
      4.923  0.0000E+00  0.2640E+03
      5.054  0.0000E+00  0.2640E+03
      5.186  0.0000E+00  0.2640E+03
      5.318  0.0000E+00  0.2640E+03
      5.449  0.0000E+00  0.2640E+03
      5.581  0.0000E+00  0.2640E+03
      5.713  0.0000E+00  0.2640E+03
      5.844  0.0000E+00  0.2640E+03
      5.976  0.0000E+00  0.2640E+03
