 vasp.5.4.4.18Apr17-6-g9f103f2a35 (build Aug 13 2022 23:40:43) complex          
  
 executed on             LinuxIFC date 2024.11.10  03:53:05
 running on   48 total cores
 distrk:  each k-point on   48 cores,    1 groups
 distr:  one band on NCORES_PER_BAND=   8 cores,    6 groups


--------------------------------------------------------------------------------------------------------


 INCAR:
 POTCAR:    PAW_PBE C 08Apr2002                   
 POTCAR:    PAW_PBE O 08Apr2002                   
 POTCAR:    PAW_PBE C 08Apr2002                   
   VRHFIN =C: s2p2                                                              
   LEXCH  = PE                                                                  
   EATOM  =   147.1560 eV,   10.8157 Ry                                         
                                                                                
   TITEL  = PAW_PBE C 08Apr2002                                                 
   LULTRA =        F    use ultrasoft PP ?                                      
   IUNSCR =        1    unscreen: 0-lin 1-nonlin 2-no                           
   RPACOR =    1.200    partial core radius                                     
   POMASS =   12.011; ZVAL   =    4.000    mass and valenz                      
   RCORE  =    1.500    outmost cutoff radius                                   
   RWIGS  =    1.630; RWIGS  =    0.863    wigner-seitz radius (au A)           
   ENMAX  =  400.000; ENMIN  =  300.000 eV                                      
   ICORE  =        2    local potential                                         
   LCOR   =        T    correct aug charges                                     
   LPAW   =        T    paw PP                                                  
   EAUG   =  644.873                                                            
   DEXC   =    0.000                                                            
   RMAX   =    1.529    core radius for proj-oper                               
   RAUG   =    1.300    factor for augmentation sphere                          
   RDEP   =    1.501    radius for radial grids                                 
   RDEPT  =    1.300    core radius for aug-charge                              
                                                                                
   Atomic configuration                                                         
    4 entries                                                                   
     n  l   j            E        occ.                                          
     1  0  0.50      -273.3789   2.0000                                         
     2  0  0.50       -13.7508   2.0000                                         
     2  1  0.50        -5.2854   2.0000                                         
     3  2  1.50        -5.4423   0.0000                                         
   Description                                                                  
     l       E           TYP  RCUT    TYP  RCUT                                 
     0    -13.7508458     23  1.200                                             
     0     -8.2022199     23  1.200                                             
     1     -5.2854383     23  1.500                                             
     1     34.0145650     23  1.500                                             
     2     -5.4423304      7  1.500                                             
  local pseudopotential read in
  partial core-charges read in
  partial kinetic energy density read in
  atomic valenz-charges read in
  non local Contribution for L=           0  read in
    real space projection operators read in
  non local Contribution for L=           0  read in
    real space projection operators read in
  non local Contribution for L=           1  read in
    real space projection operators read in
  non local Contribution for L=           1  read in
    real space projection operators read in
    PAW grid and wavefunctions read in
 
   number of l-projection  operators is LMAX  =           4
   number of lm-projection operators is LMMAX =           8
 
 POTCAR:    PAW_PBE O 08Apr2002                   
   VRHFIN =O: s2p4                                                              
   LEXCH  = PE                                                                  
   EATOM  =   432.3788 eV,   31.7789 Ry                                         
                                                                                
   TITEL  = PAW_PBE O 08Apr2002                                                 
   LULTRA =        F    use ultrasoft PP ?                                      
   IUNSCR =        1    unscreen: 0-lin 1-nonlin 2-no                           
   RPACOR =    1.200    partial core radius                                     
   POMASS =   16.000; ZVAL   =    6.000    mass and valenz                      
   RCORE  =    1.520    outmost cutoff radius                                   
   RWIGS  =    1.550; RWIGS  =    0.820    wigner-seitz radius (au A)           
   ENMAX  =  400.000; ENMIN  =  300.000 eV                                      
   ICORE  =        2    local potential                                         
   LCOR   =        T    correct aug charges                                     
   LPAW   =        T    paw PP                                                  
   EAUG   =  605.392                                                            
   DEXC   =    0.000                                                            
   RMAX   =    1.553    core radius for proj-oper                               
   RAUG   =    1.300    factor for augmentation sphere                          
   RDEP   =    1.550    radius for radial grids                                 
   RDEPT  =    1.329    core radius for aug-charge                              
                                                                                
   Atomic configuration                                                         
    4 entries                                                                   
     n  l   j            E        occ.                                          
     1  0  0.50      -514.6923   2.0000                                         
     2  0  0.50       -23.9615   2.0000                                         
     2  1  0.50        -9.0305   4.0000                                         
     3  2  1.50        -9.5241   0.0000                                         
   Description                                                                  
     l       E           TYP  RCUT    TYP  RCUT                                 
     0    -23.9615318     23  1.200                                             
     0     -9.5240782     23  1.200                                             
     1     -9.0304911     23  1.520                                             
     1      8.1634956     23  1.520                                             
     2     -9.5240782      7  1.500                                             
  local pseudopotential read in
  partial core-charges read in
  partial kinetic energy density read in
  kinetic energy density of atom read in
  atomic valenz-charges read in
  non local Contribution for L=           0  read in
    real space projection operators read in
  non local Contribution for L=           0  read in
    real space projection operators read in
  non local Contribution for L=           1  read in
    real space projection operators read in
  non local Contribution for L=           1  read in
    real space projection operators read in
    PAW grid and wavefunctions read in
 
   number of l-projection  operators is LMAX  =           4
   number of lm-projection operators is LMMAX =           8
 

 ----------------------------------------------------------------------------- 
|                                                                             |
|  ADVICE TO THIS USER RUNNING 'VASP/VAMP'   (HEAR YOUR MASTER'S VOICE ...):  |
|                                                                             |
|      You have a (more or less) 'large supercell' and for larger cells       |
|      it might be more efficient to use real space projection opertators     |
|      So try LREAL= Auto  in the INCAR   file.                               |
|      Mind:          For very  accurate calculation you might also keep the  |
|      reciprocal projection scheme          (i.e. LREAL=.FALSE.)             |
|                                                                             |
 ----------------------------------------------------------------------------- 

  PAW_PBE C 08Apr2002                   :
 energy of atom  1       EATOM= -147.1560
 kinetic energy error for atom=    0.0288 (will be added to EATOM!!)
  PAW_PBE O 08Apr2002                   :
 energy of atom  2       EATOM= -432.3788
 kinetic energy error for atom=    0.1156 (will be added to EATOM!!)
 
 
 POSCAR: generated by phonopy                    
  positions in direct lattice
  No initial velocities read in
 exchange correlation table for  LEXCH =        8
   RHO(1)=    0.500       N(1)  =     2000
   RHO(2)=  100.500       N(2)  =     4000

 VTST: version 3.2, (02/03/18)

 CHAIN: initializing optimizer
 
 OPT: Using VASP Dynamics algorithm
 CHAIN: Read ICHAIN            0
 
 POSCAR: generated by phonopy                    
  positions in direct lattice
  No initial velocities read in
 


--------------------------------------------------------------------------------------------------------


 ion  position               nearest neighbor table
   1  0.000  0.000  0.418-  26 1.42  30 1.42  46 1.42
   2  0.200  0.000  0.418-  27 1.42  26 1.42  47 1.42
   3  0.400  0.000  0.418-  28 1.42  27 1.42  48 1.42
   4  0.600  0.000  0.418-  29 1.42  28 1.42  49 1.42
   5  0.800  0.000  0.418-  30 1.42  29 1.42  50 1.42
   6  0.000  0.200  0.418-  31 1.42  35 1.42  26 1.42
   7  0.200  0.200  0.418-  32 1.42  31 1.42  27 1.42
   8  0.400  0.200  0.418-  33 1.42  32 1.42  28 1.42
   9  0.600  0.200  0.418-  34 1.42  33 1.42  29 1.42
  10  0.800  0.200  0.418-  35 1.42  34 1.42  30 1.42
  11  0.000  0.400  0.418-  36 1.42  40 1.42  31 1.42
  12  0.200  0.400  0.418-  37 1.42  36 1.42  32 1.42
  13  0.400  0.400  0.418-  51 1.00  38 1.42  37 1.42  33 1.42
  14  0.600  0.400  0.418-  39 1.42  38 1.42  34 1.42
  15  0.800  0.400  0.418-  40 1.42  39 1.42  35 1.42
  16  0.000  0.600  0.418-  41 1.42  45 1.42  36 1.42
  17  0.200  0.600  0.418-  42 1.42  41 1.42  37 1.42
  18  0.400  0.600  0.418-  43 1.42  42 1.42  38 1.42
  19  0.600  0.600  0.418-  44 1.42  43 1.42  39 1.42
  20  0.800  0.600  0.418-  45 1.42  44 1.42  40 1.42
  21  0.000  0.800  0.418-  46 1.42  50 1.42  41 1.42
  22  0.200  0.800  0.418-  47 1.42  46 1.42  42 1.42
  23  0.400  0.800  0.418-  48 1.42  47 1.42  43 1.42
  24  0.600  0.800  0.418-  49 1.42  48 1.42  44 1.42
  25  0.800  0.800  0.418-  50 1.42  49 1.42  45 1.42
  26  0.067  0.067  0.418-   1 1.42   2 1.42   6 1.42
  27  0.267  0.067  0.418-   2 1.42   3 1.42   7 1.42
  28  0.467  0.067  0.418-   3 1.42   4 1.42   8 1.42
  29  0.667  0.067  0.418-   4 1.42   5 1.42   9 1.42
  30  0.867  0.067  0.418-   5 1.42   1 1.42  10 1.42
  31  0.067  0.267  0.418-   6 1.42  11 1.42   7 1.42
  32  0.267  0.267  0.418-   8 1.42  12 1.42   7 1.42
  33  0.467  0.267  0.418-   8 1.42   9 1.42  13 1.42  51 1.74
  34  0.667  0.267  0.418-   9 1.42  10 1.42  14 1.42
  35  0.867  0.267  0.418-  10 1.42   6 1.42  15 1.42
  36  0.067  0.467  0.418-  11 1.42  12 1.42  16 1.42
  37  0.267  0.467  0.418-  12 1.42  13 1.42  17 1.42  51 1.74
  38  0.467  0.467  0.418-  13 1.42  14 1.42  18 1.42  51 1.74
  39  0.667  0.467  0.418-  14 1.42  15 1.42  19 1.42
  40  0.867  0.467  0.418-  15 1.42  11 1.42  20 1.42
  41  0.067  0.667  0.418-  16 1.42  17 1.42  21 1.42
  42  0.267  0.667  0.418-  17 1.42  18 1.42  22 1.42
  43  0.467  0.667  0.418-  18 1.42  19 1.42  23 1.42
  44  0.667  0.667  0.418-  19 1.42  20 1.42  24 1.42
  45  0.867  0.667  0.418-  20 1.42  16 1.42  25 1.42
  46  0.067  0.867  0.418-  21 1.42  22 1.42   1 1.42
  47  0.267  0.867  0.418-  22 1.42  23 1.42   2 1.42
  48  0.467  0.867  0.418-  23 1.42  24 1.42   3 1.42
  49  0.667  0.867  0.418-  24 1.42  25 1.42   4 1.42
  50  0.867  0.867  0.418-  25 1.42  21 1.42   5 1.42
  51  0.400  0.400  0.468-  13 1.00  38 1.74  37 1.74  33 1.74
 
  LATTYP: Found a hexagonal cell.
 ALAT       =    12.2999994816
 C/A-ratio  =     1.6260163287
  
  Lattice vectors:
  
 A1 = (   6.1499993860, -10.6521122225,   0.0000000000)
 A2 = ( -12.3000001905,   0.0000000000,   0.0000000000)
 A3 = (   0.0000000000,   0.0000000000, -20.0000000000)


Analysis of symmetry for initial positions (statically):
=====================================================================
 Subroutine PRICEL returns:
 Original cell was already a primitive cell.
 

 Routine SETGRP: Setting up the symmetry group for a 
 hexagonal supercell.


 Subroutine GETGRP returns: Found  2 space group operations
 (whereof  2 operations were pure point group operations)
 out of a pool of 24 trial point group operations.


The static configuration has the point symmetry C_1h.


Analysis of symmetry for dynamics (positions and initial velocities):
=====================================================================
 Subroutine PRICEL returns:
 Original cell was already a primitive cell.
 

 Routine SETGRP: Setting up the symmetry group for a 
 hexagonal supercell.


 Subroutine GETGRP returns: Found  2 space group operations
 (whereof  2 operations were pure point group operations)
 out of a pool of 24 trial point group operations.


The dynamic configuration has the point symmetry C_1h.


 Subroutine INISYM returns: Found  2 space group operations
 (whereof  2 operations are pure point group operations),
 and found     1 'primitive' translations

 
 
 KPOINTS: K-POINTS                                

Automatic generation of k-mesh.
Space group operators:
 irot       det(A)        alpha          n_x          n_y          n_z        tau_x        tau_y        tau_z
    1     1.000000     0.000000     1.000000     0.000000     0.000000     0.000000     0.000000     0.000000
    2    -1.000000   180.000000     0.500000    -0.866025     0.000000     0.000000     0.000000     0.000000
 
 Subroutine IBZKPT returns following result:
 ===========================================
 
 Found      4 irreducible k-points:
 
 Following reciprocal coordinates:
            Coordinates               Weight
  0.000000  0.000000  0.000000      1.000000
  0.333333  0.000000  0.000000      4.000000
  0.333333  0.333333  0.000000      2.000000
 -0.333333  0.333333  0.000000      2.000000
 
 Following cartesian coordinates:
            Coordinates               Weight
  0.000000  0.000000  0.000000      1.000000
  0.027100 -0.015646  0.000000      4.000000
  0.027100  0.015646  0.000000      2.000000
 -0.027100  0.046939  0.000000      2.000000
 


--------------------------------------------------------------------------------------------------------




 Dimension of arrays:
   k-points           NKPTS =      4   k-points in BZ     NKDIM =      4   number of bands    NBANDS=    132
   number of dos      NEDOS =    301   number of ions     NIONS =     51
   non local maximal  LDIM  =      4   non local SUM 2l+1 LMDIM =      8
   total plane-waves  NPLWV = 896000
   max r-space proj   IRMAX =      1   max aug-charges    IRDMAX=  35685
   dimension x,y,z NGX =    80 NGY =   80 NGZ =  140
   dimension x,y,z NGXF=   160 NGYF=  160 NGZF=  280
   support grid    NGXF=   320 NGYF=  320 NGZF=  560
   ions per type =              50   1
   NGX,Y,Z   is equivalent  to a cutoff of  10.81, 10.81, 11.64 a.u.
   NGXF,Y,Z  is equivalent  to a cutoff of  21.63, 21.63, 23.27 a.u.

 SYSTEM =                                          
 POSCAR =  generated by phonopy                    

 Startparameter for this run:
   NWRITE =      2    write-flag & timer
   PREC   = accura    normal or accurate (medium, high low for compatibility)
   ISTART =      1    job   : 0-new  1-cont  2-samecut
   ICHARG =      1    charge: 1-file 2-atom 10-const
   ISPIN  =      1    spin polarized calculation?
   LNONCOLLINEAR =      F non collinear calculations
   LSORBIT =      F    spin-orbit coupling
   INIWAV =      1    electr: 0-lowe 1-rand  2-diag
   LASPH  =      F    aspherical Exc in radial PAW
   METAGGA=      F    non-selfconsistent MetaGGA calc.

 Electronic Relaxation 1
   ENCUT  =  400.0 eV  29.40 Ry    5.42 a.u.  20.06 20.06 32.61*2*pi/ulx,y,z
   ENINI  =  400.0     initial cutoff
   ENAUG  =  644.9 eV  augmentation charge cutoff
   NELM   =    300;   NELMIN=  2; NELMDL=  0     # of ELM steps 
   EDIFF  = 0.1E-04   stopping-criterion for ELM
   LREAL  =      F    real-space projection
   NLSPLINE    = F    spline interpolate recip. space projectors
   LCOMPAT=      F    compatible to vasp.4.4
   GGA_COMPAT  = T    GGA compatible to vasp.4.4-vasp.4.6
   LMAXPAW     = -100 max onsite density
   LMAXMIX     =    2 max onsite mixed and CHGCAR
   VOSKOWN=      0    Vosko Wilk Nusair interpolation
   ROPT   =    0.00000   0.00000
 Ionic relaxation
   EDIFFG = -.1E-02   stopping-criterion for IOM
   NSW    =      1    number of steps for IOM
   NBLOCK =      1;   KBLOCK =      1    inner block; outer block 
   IBRION =     -1    ionic relax: 0-MD 1-quasi-New 2-CG
   NFREE  =      0    steps in history (QN), initial steepest desc. (CG)
   ISIF   =      2    stress and relaxation
   IWAVPR =     10    prediction:  0-non 1-charg 2-wave 3-comb
   ISYM   =      2    0-nonsym 1-usesym 2-fastsym
   LCORR  =      T    Harris-Foulkes like correction to forces

   POTIM  = 0.5000    time-step for ionic-motion
   TEIN   =    0.0    initial temperature
   TEBEG  =    0.0;   TEEND  =   0.0 temperature during run
   SMASS  =  -3.00    Nose mass-parameter (am)
   estimated Nose-frequenzy (Omega)   =  0.10E-29 period in steps =****** mass=  -0.346E-26a.u.
   SCALEE = 1.0000    scale energy and forces
   NPACO  =    256;   APACO  = 16.0  distance and # of slots for P.C.
   PSTRESS=    0.0 pullay stress

  Mass of Ions in am
   POMASS =  12.01 16.00
  Ionic Valenz
   ZVAL   =   4.00  6.00
  Atomic Wigner-Seitz radii
   RWIGS  =  -1.00 -1.00
  virtual crystal weights 
   VCA    =   1.00  1.00
   NELECT =     206.0000    total number of electrons
   NUPDOWN=      -1.0000    fix difference up-down

 DOS related values:
   EMIN   =  10.00;   EMAX   =-10.00  energy-range for DOS
   EFERMI =   0.00
   ISMEAR =     0;   SIGMA  =   0.05  broadening in eV -4-tet -1-fermi 0-gaus

 Electronic relaxation 2 (details)
   IALGO  =     68    algorithm
   LDIAG  =      T    sub-space diagonalisation (order eigenvalues)
   LSUBROT=      F    optimize rotation matrix (better conditioning)
   TURBO    =      0    0=normal 1=particle mesh
   IRESTART =      0    0=no restart 2=restart with 2 vectors
   NREBOOT  =      0    no. of reboots
   NMIN     =      0    reboot dimension
   EREF     =   0.00    reference energy to select bands
   IMIX   =      4    mixing-type and parameters
     AMIX     =   0.40;   BMIX     =  1.00
     AMIX_MAG =   1.60;   BMIX_MAG =  1.00
     AMIN     =   0.10
     WC   =   100.;   INIMIX=   1;  MIXPRE=   1;  MAXMIX= -45

 Intra band minimization:
   WEIMIN = 0.0000     energy-eigenvalue tresh-hold
   EBREAK =  0.19E-07  absolut break condition
   DEPER  =   0.30     relativ break condition  

   TIME   =   0.40     timestep for ELM

  volume/ion in A,a.u.               =      51.38       346.73
  Fermi-wavevector in a.u.,A,eV,Ry     =   0.701305  1.325274  6.691736  0.491829
  Thomas-Fermi vector in A             =   1.785695
 
 Write flags
   LWAVE        =      F    write WAVECAR
   LDOWNSAMPLE  =      F    k-point downsampling of WAVECAR
   LCHARG       =      F    write CHGCAR
   LVTOT        =      F    write LOCPOT, total local potential
   LVHAR        =      F    write LOCPOT, Hartree potential only
   LELF         =      F    write electronic localiz. function (ELF)
   LORBIT       =      0    0 simple, 1 ext, 2 COOP (PROOUT), +10 PAW based schemes


 Dipole corrections
   LMONO  =      F    monopole corrections only (constant potential shift)
   LDIPOL =      F    correct potential (dipole corrections)
   IDIPOL =      0    1-x, 2-y, 3-z, 4-all directions 
   EPSILON=  1.0000000 bulk dielectric constant

 Exchange correlation treatment:
   GGA     =    --    GGA type
   LEXCH   =     8    internal setting for exchange type
   VOSKOWN=      0    Vosko Wilk Nusair interpolation
   LHFCALC =     F    Hartree Fock is set to
   LHFONE  =     F    Hartree Fock one center treatment
   AEXX    =    0.0000 exact exchange contribution

 Linear response parameters
   LEPSILON=     F    determine dielectric tensor
   LRPA    =     F    only Hartree local field effects (RPA)
   LNABLA  =     F    use nabla operator in PAW spheres
   LVEL    =     F    velocity operator in full k-point grid
   LINTERFAST=   F  fast interpolation
   KINTER  =     0    interpolate to denser k-point grid
   CSHIFT  =0.1000    complex shift for real part using Kramers Kronig
   OMEGAMAX=  -1.0    maximum frequency
   DEG_THRESHOLD= 0.2000000E-02 threshold for treating states as degnerate
   RTIME   =   -0.100 relaxation time in fs
  (WPLASMAI=    0.000 imaginary part of plasma frequency in eV, 0.658/RTIME)
   DFIELD  = 0.0000000 0.0000000 0.0000000 field for delta impulse in time
 
 Orbital magnetization related:
   ORBITALMAG=     F  switch on orbital magnetization
   LCHIMAG   =     F  perturbation theory with respect to B field
   DQ        =  0.001000  dq finite difference perturbation B field
   LLRAUG    =     F  two centre corrections for induced B field



--------------------------------------------------------------------------------------------------------


 Static calculation
 charge density and potential will be updated during run
 non-spin polarized calculation
 RMM-DIIS sequential band-by-band and
  variant of blocked Davidson during initial phase
 perform sub-space diagonalisation
    before iterative eigenvector-optimisation
 modified Broyden-mixing scheme, WC =      100.0
 initial mixing is a Kerker type mixing with AMIX =  0.4000 and BMIX =      1.0000
 Hartree-type preconditioning will be used
 using additional bands           29
 reciprocal scheme for non local part
 use partial core corrections
 calculate Harris-corrections to forces 
   (improved forces if not selfconsistent)
 use gradient corrections 
 use of overlap-Matrix (Vanderbilt PP)
 Gauss-broadening in eV      SIGMA  =   0.05


--------------------------------------------------------------------------------------------------------


  energy-cutoff  :      400.00
  volume of cell :     2620.42
      direct lattice vectors                 reciprocal lattice vectors
    12.300000191  0.000000000  0.000000000     0.081300812 -0.046939053  0.000000000
     6.150000804 10.652112223  0.000000000     0.000000000  0.093878095  0.000000000
     0.000000000  0.000000000 20.000000000     0.000000000  0.000000000  0.050000000

  length of vectors
    12.300000191 12.300000191 20.000000000     0.093878095  0.093878095  0.050000000


 
 old parameters found on file WAVECAR:
  energy-cutoff  :      400.00
  volume of cell :     2620.42
      direct lattice vectors                 reciprocal lattice vectors
    12.300000191  0.000000000  0.000000000     0.081300812 -0.046939053  0.000000000
     6.150000804 10.652112223  0.000000000     0.000000000  0.093878095  0.000000000
     0.000000000  0.000000000 20.000000000     0.000000000  0.000000000  0.050000000

  length of vectors

 
 k-points in units of 2pi/SCALE and weight: K-POINTS                                
   0.00000000  0.00000000  0.00000000       0.111
   0.02710027 -0.01564635  0.00000000       0.444
   0.02710027  0.01564635  0.00000000       0.222
  -0.02710027  0.04693905  0.00000000       0.222
 
 k-points in reciprocal lattice and weights: K-POINTS                                
   0.00000000  0.00000000  0.00000000       0.111
   0.33333333  0.00000000  0.00000000       0.444
   0.33333333  0.33333333  0.00000000       0.222
  -0.33333333  0.33333333  0.00000000       0.222
 
 position of ions in fractional coordinates (direct lattice) 
   0.00000000  0.00000000  0.41799748
   0.20000000  0.00000000  0.41799748
   0.40000000  0.00000000  0.41799748
   0.60000000  0.00000000  0.41799748
   0.80000000  0.00000000  0.41799748
   0.00000000  0.20000000  0.41799748
   0.20000000  0.20000000  0.41849748
   0.40000000  0.20000000  0.41799748
   0.60000000  0.20000000  0.41799748
   0.80000000  0.20000000  0.41799748
   0.00000000  0.40000000  0.41799748
   0.20000000  0.40000000  0.41799748
   0.40000000  0.40000000  0.41799748
   0.60000000  0.40000000  0.41799748
   0.80000000  0.40000000  0.41799748
   0.00000000  0.60000000  0.41799748
   0.20000000  0.60000000  0.41799748
   0.40000000  0.60000000  0.41799748
   0.60000000  0.60000000  0.41799748
   0.80000000  0.60000000  0.41799748
   0.00000000  0.80000000  0.41799748
   0.20000000  0.80000000  0.41799748
   0.40000000  0.80000000  0.41799748
   0.60000000  0.80000000  0.41799748
   0.80000000  0.80000000  0.41799748
   0.06666667  0.06666660  0.41800609
   0.26666667  0.06666660  0.41800609
   0.46666667  0.06666660  0.41800609
   0.66666667  0.06666660  0.41800609
   0.86666667  0.06666660  0.41800609
   0.06666667  0.26666660  0.41800609
   0.26666667  0.26666660  0.41800609
   0.46666667  0.26666660  0.41800609
   0.66666667  0.26666660  0.41800609
   0.86666667  0.26666660  0.41800609
   0.06666667  0.46666660  0.41800609
   0.26666667  0.46666660  0.41800609
   0.46666667  0.46666660  0.41800609
   0.66666667  0.46666660  0.41800609
   0.86666667  0.46666660  0.41800609
   0.06666667  0.66666660  0.41800609
   0.26666667  0.66666660  0.41800609
   0.46666667  0.66666660  0.41800609
   0.66666667  0.66666660  0.41800609
   0.86666667  0.66666660  0.41800609
   0.06666667  0.86666660  0.41800609
   0.26666667  0.86666660  0.41800609
   0.46666667  0.86666660  0.41800609
   0.66666667  0.86666660  0.41800609
   0.86666667  0.86666660  0.41800609
   0.40000000  0.40000000  0.46800609
 
 position of ions in cartesian coordinates  (Angst):
   0.00000000  0.00000000  8.35994958
   2.46000004  0.00000000  8.35994958
   4.92000008  0.00000000  8.35994958
   7.38000011  0.00000000  8.35994958
   9.84000015  0.00000000  8.35994958
   1.23000016  2.13042244  8.35994958
   3.69000020  2.13042244  8.36994958
   6.15000024  2.13042244  8.35994958
   8.61000028  2.13042244  8.35994958
  11.07000031  2.13042244  8.35994958
   2.46000032  4.26084489  8.35994958
   4.92000036  4.26084489  8.35994958
   7.38000040  4.26084489  8.35994958
   9.84000044  4.26084489  8.35994958
  12.30000047  4.26084489  8.35994958
   3.69000048  6.39126733  8.35994958
   6.15000052  6.39126733  8.35994958
   8.61000056  6.39126733  8.35994958
  11.07000060  6.39126733  8.35994958
  13.53000064  6.39126733  8.35994958
   4.92000064  8.52168978  8.35994958
   7.38000068  8.52168978  8.35994958
   9.84000072  8.52168978  8.35994958
  12.30000076  8.52168978  8.35994958
  14.76000080  8.52168978  8.35994958
   1.22999970  0.71014014  8.36012184
   3.68999974  0.71014014  8.36012184
   6.14999977  0.71014014  8.36012184
   8.60999981  0.71014014  8.36012184
  11.06999985  0.71014014  8.36012184
   2.45999986  2.84056258  8.36012184
   4.91999990  2.84056258  8.36012184
   7.37999994  2.84056258  8.36012184
   9.83999997  2.84056258  8.36012184
  12.30000001  2.84056258  8.36012184
   3.69000002  4.97098503  8.36012184
   6.15000006  4.97098503  8.36012184
   8.61000010  4.97098503  8.36012184
  11.07000013  4.97098503  8.36012184
  13.53000017  4.97098503  8.36012184
   4.92000018  7.10140747  8.36012184
   7.38000022  7.10140747  8.36012184
   9.84000026  7.10140747  8.36012184
  12.30000030  7.10140747  8.36012184
  14.76000033  7.10140747  8.36012184
   6.15000034  9.23182991  8.36012184
   8.61000038  9.23182991  8.36012184
  11.07000042  9.23182991  8.36012184
  13.53000046  9.23182991  8.36012184
  15.99000049  9.23182991  8.36012184
   7.38000040  4.26084489  9.36012184
 


--------------------------------------------------------------------------------------------------------


 k-point  1 :   0.0000 0.0000 0.0000  plane waves:   47639
 k-point  2 :   0.3333 0.0000 0.0000  plane waves:   47601
 k-point  3 :   0.3333 0.3333 0.0000  plane waves:   47601
 k-point  4 :  -0.3333 0.3333 0.0000  plane waves:   47598

 maximum and minimum number of plane-waves per node :      5975     5928

 maximum number of plane-waves:     47639
 maximum index in each direction: 
   IXMAX=   20   IYMAX=   20   IZMAX=   32
   IXMIN=  -20   IYMIN=  -20   IZMIN=  -32


 parallel 3D FFT for wavefunctions:
    minimum data exchange during FFTs selected (reduces bandwidth)
 parallel 3D FFT for charge:
    minimum data exchange during FFTs selected (reduces bandwidth)


 total amount of memory used by VASP MPI-rank0    87233. kBytes
=======================================================================

   base      :      30000. kBytes
   nonl-proj :       7912. kBytes
   fftplans  :      26248. kBytes
   grid      :      14579. kBytes
   one-center:         21. kBytes
   wavefun   :       8473. kBytes
 
     INWAV:  cpu time    0.6432: real time    0.6438
 Broyden mixing: mesh for mixing (old mesh)
   NGX = 41   NGY = 41   NGZ = 65
  (NGX  =160   NGY  =160   NGZ  =280)
  gives a total of 109265 points

 initial charge density was supplied:
 number of electron     206.0000000 magnetization 
 keeping initial charge density in first step


--------------------------------------------------------------------------------------------------------


 Maximum index for augmentation-charges         1119 (set IRDMAX)


--------------------------------------------------------------------------------------------------------


 First call to EWALD:  gamma=   0.129
 Maximum number of real-space cells 3x 3x 2
 Maximum number of reciprocal cells 3x 3x 4

    FEWALD:  cpu time    0.0016: real time    0.0031


--------------------------------------- Iteration      1(   1)  ---------------------------------------


    POTLOK:  cpu time    0.1063: real time    0.1088
    SETDIJ:  cpu time    0.0828: real time    0.0842
     EDDAV:  cpu time    3.2876: real time    3.2907
       DOS:  cpu time    0.0009: real time    0.0009
    CHARGE:  cpu time    0.3158: real time    0.3160
    MIXING:  cpu time    0.0058: real time    0.0061
    --------------------------------------------
      LOOP:  cpu time    3.7992: real time    3.8067

 eigenvalue-minimisations  :  1092
 total energy-change (2. order) :-0.4535018E+03  (-0.2274194E+02)
 number of electron     206.0000000 magnetization 
 augmentation part        5.5173664 magnetization 

 Broyden mixing:
  rms(total) = 0.38989E-01    rms(broyden)= 0.38961E-01
  rms(prec ) = 0.40050E-01
  weight for this iteration     100.00

 Free energy of the ion-electron system (eV)
  ---------------------------------------------------
  alpha Z        PSCENC =        82.54348252
  Ewald energy   TEWEN  =     34516.56348528
  -Hartree energ DENC   =    -41034.87815970
  -exchange      EXHF   =         0.00000000
  -V(xc)+E(xc)   XCENC  =       721.37964220
  PAW double counting   =     22781.19595426   -22817.52509957
  entropy T*S    EENTRO =        -0.00050052
  eigenvalues    EBANDS =     -2491.40503245
  atomic energy  EATOM  =      7788.62438962
  Solvation  Ediel_sol  =         0.00000000
  ---------------------------------------------------
  free energy    TOTEN  =      -453.50183836 eV

  energy without entropy =     -453.50133784  energy(sigma->0) =     -453.50158810


--------------------------------------------------------------------------------------------------------




--------------------------------------- Iteration      1(   2)  ---------------------------------------


    POTLOK:  cpu time    0.0957: real time    0.0979
    SETDIJ:  cpu time    0.0799: real time    0.0814
    EDDIAG:  cpu time    0.6320: real time    0.6322
  RMM-DIIS:  cpu time    2.9741: real time    2.9757
    ORTHCH:  cpu time    0.0335: real time    0.0335
       DOS:  cpu time    0.0003: real time    0.0003
    CHARGE:  cpu time    0.3134: real time    0.3139
    MIXING:  cpu time    0.0062: real time    0.0064
    --------------------------------------------
      LOOP:  cpu time    4.1352: real time    4.1412

 eigenvalue-minimisations  :  1133
 total energy-change (2. order) :-0.7935343E+00  (-0.7949515E+00)
 number of electron     206.0000000 magnetization 
 augmentation part        5.5417657 magnetization 

 Broyden mixing:
  rms(total) = 0.15986E-01    rms(broyden)= 0.15944E-01
  rms(prec ) = 0.16986E-01
  weight for this iteration     100.00

 eigenvalues of (default mixing * dielectric matrix)
  average eigenvalue GAMMA=   0.7362
  0.7362

 Free energy of the ion-electron system (eV)
  ---------------------------------------------------
  alpha Z        PSCENC =        82.54348252
  Ewald energy   TEWEN  =     34516.56348528
  -Hartree energ DENC   =    -41032.86207306
  -exchange      EXHF   =         0.00000000
  -V(xc)+E(xc)   XCENC  =       721.29428352
  PAW double counting   =     22830.95950541   -22867.24808256
  entropy T*S    EENTRO =        -0.00010171
  eigenvalues    EBANDS =     -2494.17026171
  atomic energy  EATOM  =      7788.62438962
  Solvation  Ediel_sol  =         0.00000000
  ---------------------------------------------------
  free energy    TOTEN  =      -454.29537271 eV

  energy without entropy =     -454.29527100  energy(sigma->0) =     -454.29532185


--------------------------------------------------------------------------------------------------------




--------------------------------------- Iteration      1(   3)  ---------------------------------------


    POTLOK:  cpu time    0.0956: real time    0.0961
    SETDIJ:  cpu time    0.0800: real time    0.0799
    EDDIAG:  cpu time    0.6347: real time    0.6348
  RMM-DIIS:  cpu time    3.2643: real time    3.2664
    ORTHCH:  cpu time    0.0332: real time    0.0336
       DOS:  cpu time    0.0003: real time    0.0003
    CHARGE:  cpu time    0.3140: real time    0.3140
    MIXING:  cpu time    0.0055: real time    0.0055
    --------------------------------------------
      LOOP:  cpu time    4.4276: real time    4.4307

 eigenvalue-minimisations  :  1231
 total energy-change (2. order) :-0.4106926E-01  (-0.4579506E-01)
 number of electron     206.0000000 magnetization 
 augmentation part        5.5435829 magnetization 

 Broyden mixing:
  rms(total) = 0.11837E-01    rms(broyden)= 0.11826E-01
  rms(prec ) = 0.12250E-01
  weight for this iteration     100.00

 eigenvalues of (default mixing * dielectric matrix)
  average eigenvalue GAMMA=   0.6731
  0.6731  0.6731

 Free energy of the ion-electron system (eV)
  ---------------------------------------------------
  alpha Z        PSCENC =        82.54348252
  Ewald energy   TEWEN  =     34516.56348528
  -Hartree energ DENC   =    -41033.41282279
  -exchange      EXHF   =         0.00000000
  -V(xc)+E(xc)   XCENC  =       721.32008793
  PAW double counting   =     22821.27449819   -22857.57477222
  entropy T*S    EENTRO =        -0.00012278
  eigenvalues    EBANDS =     -2493.67466773
  atomic energy  EATOM  =      7788.62438962
  Solvation  Ediel_sol  =         0.00000000
  ---------------------------------------------------
  free energy    TOTEN  =      -454.33644197 eV

  energy without entropy =     -454.33631920  energy(sigma->0) =     -454.33638058


--------------------------------------------------------------------------------------------------------




--------------------------------------- Iteration      1(   4)  ---------------------------------------


    POTLOK:  cpu time    0.0959: real time    0.0986
    SETDIJ:  cpu time    0.0890: real time    0.0905
    EDDIAG:  cpu time    0.6275: real time    0.6288
  RMM-DIIS:  cpu time    3.1006: real time    3.1020
    ORTHCH:  cpu time    0.0336: real time    0.0336
       DOS:  cpu time    0.0003: real time    0.0003
    CHARGE:  cpu time    0.3174: real time    0.3174
    MIXING:  cpu time    0.0067: real time    0.0067
    --------------------------------------------
      LOOP:  cpu time    4.2711: real time    4.2780

 eigenvalue-minimisations  :  1180
 total energy-change (2. order) :-0.3221632E-02  (-0.3320223E-02)
 number of electron     206.0000000 magnetization 
 augmentation part        5.5455816 magnetization 

 Broyden mixing:
  rms(total) = 0.11970E-01    rms(broyden)= 0.11969E-01
  rms(prec ) = 0.12318E-01
  weight for this iteration     100.00

 eigenvalues of (default mixing * dielectric matrix)
  average eigenvalue GAMMA=   0.9838
  1.2023  1.2023  0.5467

 Free energy of the ion-electron system (eV)
  ---------------------------------------------------
  alpha Z        PSCENC =        82.54348252
  Ewald energy   TEWEN  =     34516.56348528
  -Hartree energ DENC   =    -41033.67307703
  -exchange      EXHF   =         0.00000000
  -V(xc)+E(xc)   XCENC  =       721.33171986
  PAW double counting   =     22814.57056923   -22850.87671346
  entropy T*S    EENTRO =        -0.00010993
  eigenvalues    EBANDS =     -2493.42340969
  atomic energy  EATOM  =      7788.62438962
  Solvation  Ediel_sol  =         0.00000000
  ---------------------------------------------------
  free energy    TOTEN  =      -454.33966360 eV

  energy without entropy =     -454.33955367  energy(sigma->0) =     -454.33960864


--------------------------------------------------------------------------------------------------------




--------------------------------------- Iteration      1(   5)  ---------------------------------------


    POTLOK:  cpu time    0.0970: real time    0.0972
    SETDIJ:  cpu time    0.0799: real time    0.0799
    EDDIAG:  cpu time    0.6252: real time    0.6256
  RMM-DIIS:  cpu time    3.2412: real time    3.2426
    ORTHCH:  cpu time    0.0335: real time    0.0335
       DOS:  cpu time    0.0003: real time    0.0003
    CHARGE:  cpu time    0.3135: real time    0.3139
    MIXING:  cpu time    0.0067: real time    0.0067
    --------------------------------------------
      LOOP:  cpu time    4.3974: real time    4.3997

 eigenvalue-minimisations  :  1201
 total energy-change (2. order) :-0.1488658E-03  (-0.2498746E-03)
 number of electron     206.0000000 magnetization 
 augmentation part        5.5448467 magnetization 

 Broyden mixing:
  rms(total) = 0.48831E-02    rms(broyden)= 0.48826E-02
  rms(prec ) = 0.50049E-02
  weight for this iteration     100.00

 eigenvalues of (default mixing * dielectric matrix)
  average eigenvalue GAMMA=   1.1585
  1.4905  1.4905  0.5704  1.0828

 Free energy of the ion-electron system (eV)
  ---------------------------------------------------
  alpha Z        PSCENC =        82.54348252
  Ewald energy   TEWEN  =     34516.56348528
  -Hartree energ DENC   =    -41034.38592103
  -exchange      EXHF   =         0.00000000
  -V(xc)+E(xc)   XCENC  =       721.36146961
  PAW double counting   =     22792.64104258   -22828.96260452
  entropy T*S    EENTRO =        -0.00011148
  eigenvalues    EBANDS =     -2492.72504505
  atomic energy  EATOM  =      7788.62438962
  Solvation  Ediel_sol  =         0.00000000
  ---------------------------------------------------
  free energy    TOTEN  =      -454.33981247 eV

  energy without entropy =     -454.33970099  energy(sigma->0) =     -454.33975673


--------------------------------------------------------------------------------------------------------




--------------------------------------- Iteration      1(   6)  ---------------------------------------


    POTLOK:  cpu time    0.0977: real time    0.0979
    SETDIJ:  cpu time    0.0799: real time    0.0799
    EDDIAG:  cpu time    0.6321: real time    0.6323
  RMM-DIIS:  cpu time    3.2367: real time    3.2384
    ORTHCH:  cpu time    0.0329: real time    0.0341
       DOS:  cpu time    0.0003: real time    0.0003
    CHARGE:  cpu time    0.3152: real time    0.3152
    MIXING:  cpu time    0.0056: real time    0.0056
    --------------------------------------------
      LOOP:  cpu time    4.4004: real time    4.4037

 eigenvalue-minimisations  :  1213
 total energy-change (2. order) :-0.3464949E-04  (-0.3464123E-04)
 number of electron     206.0000000 magnetization 
 augmentation part        5.5443442 magnetization 

 Broyden mixing:
  rms(total) = 0.96483E-03    rms(broyden)= 0.96320E-03
  rms(prec ) = 0.10062E-02
  weight for this iteration     100.00

 eigenvalues of (default mixing * dielectric matrix)
  average eigenvalue GAMMA=   1.2317
  2.2132  1.2211  1.2211  0.9342  0.5689

 Free energy of the ion-electron system (eV)
  ---------------------------------------------------
  alpha Z        PSCENC =        82.54348252
  Ewald energy   TEWEN  =     34516.56348528
  -Hartree energ DENC   =    -41034.91399366
  -exchange      EXHF   =         0.00000000
  -V(xc)+E(xc)   XCENC  =       721.38344623
  PAW double counting   =     22777.00216269   -22813.33423594
  entropy T*S    EENTRO =        -0.00011308
  eigenvalues    EBANDS =     -2492.20847078
  atomic energy  EATOM  =      7788.62438962
  Solvation  Ediel_sol  =         0.00000000
  ---------------------------------------------------
  free energy    TOTEN  =      -454.33984712 eV

  energy without entropy =     -454.33973404  energy(sigma->0) =     -454.33979058


--------------------------------------------------------------------------------------------------------




--------------------------------------- Iteration      1(   7)  ---------------------------------------


    POTLOK:  cpu time    0.0988: real time    0.1009
    SETDIJ:  cpu time    0.0878: real time    0.0900
    EDDIAG:  cpu time    0.6277: real time    0.6290
  RMM-DIIS:  cpu time    2.2291: real time    2.2301
    ORTHCH:  cpu time    0.0333: real time    0.0333
       DOS:  cpu time    0.0003: real time    0.0003
    --------------------------------------------
      LOOP:  cpu time    3.0770: real time    3.0835

 eigenvalue-minimisations  :   794
 total energy-change (2. order) :-0.7434535E-05  (-0.1408909E-05)
 number of electron     206.0000000 magnetization 
 augmentation part        5.5443442 magnetization 

 Free energy of the ion-electron system (eV)
  ---------------------------------------------------
  alpha Z        PSCENC =        82.54348252
  Ewald energy   TEWEN  =     34516.56348528
  -Hartree energ DENC   =    -41034.94371508
  -exchange      EXHF   =         0.00000000
  -V(xc)+E(xc)   XCENC  =       721.38430306
  PAW double counting   =     22777.32631878   -22813.65819427
  entropy T*S    EENTRO =        -0.00011388
  eigenvalues    EBANDS =     -2492.17981058
  atomic energy  EATOM  =      7788.62438962
  Solvation  Ediel_sol  =         0.00000000
  ---------------------------------------------------
  free energy    TOTEN  =      -454.33985455 eV

  energy without entropy =     -454.33974068  energy(sigma->0) =     -454.33979761


--------------------------------------------------------------------------------------------------------




 average (electrostatic) potential at core
  the test charge radii are     0.6991  0.7215
  (the norm of the test charge is              1.0000)
       1 -58.2600       2 -58.2598       3 -58.2030       4 -58.0577       5 -58.2033
       6 -58.2598       7 -58.2752       8 -58.1324       9 -58.1321      10 -58.2754
      11 -58.2030      12 -58.1324      13 -60.6853      14 -58.1326      15 -58.2031
      16 -58.0577      17 -58.1321      18 -58.1326      19 -58.0579      20 -58.0650
      21 -58.2033      22 -58.2754      23 -58.2031      24 -58.0650      25 -58.0651
      26 -58.3816      27 -58.2921      28 -58.2209      29 -58.2212      30 -58.2922
      31 -58.2921      32 -58.3142      33 -58.8105      34 -58.3139      35 -58.2921
      36 -58.2209      37 -58.8105      38 -58.8109      39 -58.2212      40 -58.2227
      41 -58.2212      42 -58.3139      43 -58.2212      44 -58.1637      45 -58.1637
      46 -58.2922      47 -58.2921      48 -58.2227      49 -58.1637      50 -58.2230
      51 -81.5738
 
 
 
 E-fermi :  -3.0169     XC(G=0):  -2.2120     alpha+bet : -1.9409


 k-point     1 :       0.0000    0.0000    0.0000
  band No.  band energies     occupation 
      1     -31.7393      2.00000
      2     -22.2709      2.00000
      3     -21.5027      2.00000
      4     -21.5027      2.00000
      5     -21.3943      2.00000
      6     -21.3942      2.00000
      7     -21.3938      2.00000
      8     -20.8740      2.00000
      9     -19.8763      2.00000
     10     -19.8763      2.00000
     11     -19.5490      2.00000
     12     -19.5489      2.00000
     13     -19.5387      2.00000
     14     -19.1912      2.00000
     15     -18.9008      2.00000
     16     -18.9008      2.00000
     17     -18.6434      2.00000
     18     -18.6428      2.00000
     19     -18.6428      2.00000
     20     -17.8839      2.00000
     21     -17.0211      2.00000
     22     -17.0210      2.00000
     23     -16.4775      2.00000
     24     -16.4580      2.00000
     25     -16.4580      2.00000
     26     -16.0493      2.00000
     27     -15.9964      2.00000
     28     -15.9964      2.00000
     29     -15.4972      2.00000
     30     -15.4972      2.00000
     31     -15.4927      2.00000
     32     -15.0893      2.00000
     33     -14.6291      2.00000
     34     -14.6290      2.00000
     35     -14.1495      2.00000
     36     -14.1495      2.00000
     37     -14.1429      2.00000
     38     -13.9644      2.00000
     39     -12.9909      2.00000
     40     -12.9907      2.00000
     41     -12.0309      2.00000
     42     -11.7646      2.00000
     43     -11.7645      2.00000
     44     -11.7614      2.00000
     45     -11.6901      2.00000
     46     -11.6900      2.00000
     47     -11.6514      2.00000
     48     -11.6495      2.00000
     49     -11.6495      2.00000
     50     -11.6485      2.00000
     51     -10.8016      2.00000
     52     -10.8016      2.00000
     53     -10.4283      2.00000
     54     -10.3344      2.00000
     55     -10.2885      2.00000
     56     -10.2885      2.00000
     57     -10.2703      2.00000
     58     -10.0770      2.00000
     59      -9.6854      2.00000
     60      -9.6853      2.00000
     61      -9.3258      2.00000
     62      -9.3255      2.00000
     63      -9.3003      2.00000
     64      -9.2792      2.00000
     65      -9.2788      2.00000
     66      -9.0456      2.00000
     67      -9.0045      2.00000
     68      -9.0044      2.00000
     69      -8.9484      2.00000
     70      -8.9415      2.00000
     71      -8.9401      2.00000
     72      -8.9401      2.00000
     73      -8.9187      2.00000
     74      -8.9187      2.00000
     75      -8.8932      2.00000
     76      -8.4349      2.00000
     77      -7.8014      2.00000
     78      -7.7998      2.00000
     79      -7.3267      2.00000
     80      -7.3242      2.00000
     81      -7.3097      2.00000
     82      -7.2998      2.00000
     83      -7.2998      2.00000
     84      -7.2984      2.00000
     85      -7.1607      2.00000
     86      -7.1604      2.00000
     87      -7.1548      2.00000
     88      -6.7514      2.00000
     89      -6.5076      2.00000
     90      -6.5058      2.00000
     91      -6.2668      2.00000
     92      -6.2464      2.00000
     93      -6.2463      2.00000
     94      -5.9237      2.00000
     95      -5.9231      2.00000
     96      -5.1955      2.00000
     97      -4.7630      2.00000
     98      -4.7628      2.00000
     99      -4.2704      2.00000
    100      -4.2663      2.00000
    101      -4.2663      2.00000
    102      -3.2144      2.00000
    103      -3.2143      2.00000
    104      -2.9159      0.00427
    105      -1.4611      0.00000
    106      -1.4570      0.00000
    107      -1.4569      0.00000
    108      -0.9911      0.00000
    109      -0.9910      0.00000
    110      -0.5426      0.00000
    111       0.4167      0.00000
    112       0.4218      0.00000
    113       0.4219      0.00000
    114       0.5623      0.00000
    115       0.8433      0.00000
    116       0.8438      0.00000
    117       1.2923      0.00000
    118       1.3400      0.00000
    119       1.6774      0.00000
    120       1.8025      0.00000
    121       1.8025      0.00000
    122       1.8038      0.00000
    123       1.8269      0.00000
    124       1.8277      0.00000
    125       2.0318      0.00000
    126       2.1769      0.00000
    127       2.1796      0.00000
    128       2.1796      0.00000
    129       2.3456      0.00000
    130       2.3474      0.00000
    131       2.6215      0.00000
    132       2.6420      0.00000

 k-point     2 :       0.3333    0.0000    0.0000
  band No.  band energies     occupation 
      1     -31.7394      2.00000
      2     -22.1888      2.00000
      3     -21.8691      2.00000
      4     -21.6610      2.00000
      5     -21.4543      2.00000
      6     -21.0345      2.00000
      7     -20.8969      2.00000
      8     -20.7272      2.00000
      9     -20.4199      2.00000
     10     -20.1620      2.00000
     11     -19.7867      2.00000
     12     -19.6988      2.00000
     13     -19.3262      2.00000
     14     -19.2427      2.00000
     15     -19.0614      2.00000
     16     -18.5925      2.00000
     17     -18.4577      2.00000
     18     -18.1211      2.00000
     19     -18.0627      2.00000
     20     -17.5907      2.00000
     21     -17.4976      2.00000
     22     -17.3006      2.00000
     23     -17.2764      2.00000
     24     -16.8512      2.00000
     25     -16.6581      2.00000
     26     -16.1759      2.00000
     27     -15.9776      2.00000
     28     -15.8474      2.00000
     29     -15.2981      2.00000
     30     -15.1695      2.00000
     31     -15.1340      2.00000
     32     -14.8846      2.00000
     33     -14.7816      2.00000
     34     -14.4777      2.00000
     35     -14.4558      2.00000
     36     -13.7669      2.00000
     37     -13.7598      2.00000
     38     -13.1958      2.00000
     39     -13.0891      2.00000
     40     -12.9339      2.00000
     41     -12.9042      2.00000
     42     -12.5850      2.00000
     43     -12.5498      2.00000
     44     -12.3898      2.00000
     45     -12.0218      2.00000
     46     -11.6630      2.00000
     47     -11.4471      2.00000
     48     -11.2960      2.00000
     49     -11.1215      2.00000
     50     -10.9141      2.00000
     51     -10.8499      2.00000
     52     -10.5840      2.00000
     53     -10.5324      2.00000
     54     -10.2851      2.00000
     55     -10.2366      2.00000
     56     -10.1610      2.00000
     57     -10.0491      2.00000
     58      -9.8532      2.00000
     59      -9.8200      2.00000
     60      -9.6540      2.00000
     61      -9.6070      2.00000
     62      -9.5600      2.00000
     63      -9.5269      2.00000
     64      -9.3706      2.00000
     65      -9.3397      2.00000
     66      -9.2597      2.00000
     67      -9.1754      2.00000
     68      -9.0992      2.00000
     69      -9.0824      2.00000
     70      -8.8648      2.00000
     71      -8.7127      2.00000
     72      -8.6643      2.00000
     73      -8.5037      2.00000
     74      -8.4024      2.00000
     75      -8.2879      2.00000
     76      -8.1331      2.00000
     77      -8.0950      2.00000
     78      -8.0659      2.00000
     79      -7.9713      2.00000
     80      -7.8069      2.00000
     81      -7.6201      2.00000
     82      -7.3596      2.00000
     83      -7.3346      2.00000
     84      -7.2666      2.00000
     85      -7.1967      2.00000
     86      -6.9200      2.00000
     87      -6.8724      2.00000
     88      -6.6947      2.00000
     89      -6.5904      2.00000
     90      -6.3496      2.00000
     91      -6.1855      2.00000
     92      -6.0730      2.00000
     93      -5.9209      2.00000
     94      -5.7388      2.00000
     95      -5.6404      2.00000
     96      -5.3224      2.00000
     97      -5.1146      2.00000
     98      -4.9699      2.00000
     99      -4.9225      2.00000
    100      -4.2697      2.00000
    101      -4.1684      2.00000
    102      -3.3362      2.00000
    103      -3.1366      1.99929
    104      -2.8036      0.00000
    105      -1.5911      0.00000
    106      -1.4235      0.00000
    107      -0.8399      0.00000
    108      -0.8191      0.00000
    109      -0.7061      0.00000
    110      -0.6677      0.00000
    111      -0.1284      0.00000
    112      -0.0061      0.00000
    113       0.2931      0.00000
    114       0.7044      0.00000
    115       0.7274      0.00000
    116       1.1017      0.00000
    117       1.1730      0.00000
    118       1.3649      0.00000
    119       1.4630      0.00000
    120       1.5375      0.00000
    121       1.5706      0.00000
    122       1.6373      0.00000
    123       1.8269      0.00000
    124       1.9120      0.00000
    125       2.0394      0.00000
    126       2.2215      0.00000
    127       2.2679      0.00000
    128       2.3287      0.00000
    129       2.3400      0.00000
    130       2.3957      0.00000
    131       2.4577      0.00000
    132       2.7977      0.00000

 k-point     3 :       0.3333    0.3333    0.0000
  band No.  band energies     occupation 
      1     -31.7394      2.00000
      2     -22.1888      2.00000
      3     -21.8691      2.00000
      4     -21.6610      2.00000
      5     -21.4543      2.00000
      6     -21.0344      2.00000
      7     -20.8970      2.00000
      8     -20.7273      2.00000
      9     -20.4198      2.00000
     10     -20.1620      2.00000
     11     -19.7867      2.00000
     12     -19.6988      2.00000
     13     -19.3261      2.00000
     14     -19.2427      2.00000
     15     -19.0615      2.00000
     16     -18.5925      2.00000
     17     -18.4577      2.00000
     18     -18.1211      2.00000
     19     -18.0627      2.00000
     20     -17.5907      2.00000
     21     -17.4975      2.00000
     22     -17.3006      2.00000
     23     -17.2764      2.00000
     24     -16.8512      2.00000
     25     -16.6582      2.00000
     26     -16.1759      2.00000
     27     -15.9777      2.00000
     28     -15.8474      2.00000
     29     -15.2981      2.00000
     30     -15.1695      2.00000
     31     -15.1340      2.00000
     32     -14.8846      2.00000
     33     -14.7816      2.00000
     34     -14.4778      2.00000
     35     -14.4558      2.00000
     36     -13.7669      2.00000
     37     -13.7597      2.00000
     38     -13.1959      2.00000
     39     -13.0891      2.00000
     40     -12.9339      2.00000
     41     -12.9042      2.00000
     42     -12.5850      2.00000
     43     -12.5497      2.00000
     44     -12.3898      2.00000
     45     -12.0218      2.00000
     46     -11.6632      2.00000
     47     -11.4472      2.00000
     48     -11.2959      2.00000
     49     -11.1216      2.00000
     50     -10.9141      2.00000
     51     -10.8498      2.00000
     52     -10.5840      2.00000
     53     -10.5324      2.00000
     54     -10.2849      2.00000
     55     -10.2368      2.00000
     56     -10.1610      2.00000
     57     -10.0486      2.00000
     58      -9.8537      2.00000
     59      -9.8201      2.00000
     60      -9.6539      2.00000
     61      -9.6073      2.00000
     62      -9.5604      2.00000
     63      -9.5273      2.00000
     64      -9.3700      2.00000
     65      -9.3406      2.00000
     66      -9.2582      2.00000
     67      -9.1754      2.00000
     68      -9.0995      2.00000
     69      -9.0818      2.00000
     70      -8.8649      2.00000
     71      -8.7121      2.00000
     72      -8.6649      2.00000
     73      -8.5029      2.00000
     74      -8.4024      2.00000
     75      -8.2880      2.00000
     76      -8.1343      2.00000
     77      -8.0943      2.00000
     78      -8.0644      2.00000
     79      -7.9712      2.00000
     80      -7.8075      2.00000
     81      -7.6198      2.00000
     82      -7.3618      2.00000
     83      -7.3365      2.00000
     84      -7.2662      2.00000
     85      -7.1965      2.00000
     86      -6.9201      2.00000
     87      -6.8740      2.00000
     88      -6.6913      2.00000
     89      -6.5891      2.00000
     90      -6.3501      2.00000
     91      -6.1838      2.00000
     92      -6.0743      2.00000
     93      -5.9213      2.00000
     94      -5.7396      2.00000
     95      -5.6400      2.00000
     96      -5.3224      2.00000
     97      -5.1146      2.00000
     98      -4.9700      2.00000
     99      -4.9225      2.00000
    100      -4.2696      2.00000
    101      -4.1684      2.00000
    102      -3.3363      2.00000
    103      -3.1366      1.99929
    104      -2.8037      0.00000
    105      -1.5912      0.00000
    106      -1.4234      0.00000
    107      -0.8400      0.00000
    108      -0.8190      0.00000
    109      -0.7060      0.00000
    110      -0.6677      0.00000
    111      -0.1286      0.00000
    112      -0.0058      0.00000
    113       0.2933      0.00000
    114       0.7044      0.00000
    115       0.7273      0.00000
    116       1.1002      0.00000
    117       1.1764      0.00000
    118       1.3665      0.00000
    119       1.4646      0.00000
    120       1.5636      0.00000
    121       1.5757      0.00000
    122       1.7497      0.00000
    123       1.8281      0.00000
    124       2.1786      0.00000
    125       2.3360      0.00000
    126       2.3977      0.00000
    127       2.6147      0.00000
    128       2.7873      0.00000
    129       2.8479      0.00000
    130       3.2036      0.00000
    131       3.5951      0.00000
    132       4.1802      0.00000

 k-point     4 :      -0.3333    0.3333    0.0000
  band No.  band energies     occupation 
      1     -31.7395      2.00000
      2     -22.0803      2.00000
      3     -22.0074      2.00000
      4     -21.8014      2.00000
      5     -21.1718      2.00000
      6     -21.1503      2.00000
      7     -20.8672      2.00000
      8     -20.4128      2.00000
      9     -20.3386      2.00000
     10     -20.1718      2.00000
     11     -20.1502      2.00000
     12     -20.1428      2.00000
     13     -19.5666      2.00000
     14     -18.8260      2.00000
     15     -18.6743      2.00000
     16     -18.3723      2.00000
     17     -18.3487      2.00000
     18     -18.3362      2.00000
     19     -17.9298      2.00000
     20     -17.8012      2.00000
     21     -17.6013      2.00000
     22     -17.2614      2.00000
     23     -17.1529      2.00000
     24     -17.1204      2.00000
     25     -16.5428      2.00000
     26     -16.4374      2.00000
     27     -16.2841      2.00000
     28     -15.8083      2.00000
     29     -15.6286      2.00000
     30     -15.1752      2.00000
     31     -14.9692      2.00000
     32     -14.6523      2.00000
     33     -13.9599      2.00000
     34     -13.9391      2.00000
     35     -13.9244      2.00000
     36     -13.8734      2.00000
     37     -13.8636      2.00000
     38     -13.7918      2.00000
     39     -13.6742      2.00000
     40     -13.4947      2.00000
     41     -13.0373      2.00000
     42     -12.4744      2.00000
     43     -12.2537      2.00000
     44     -12.0713      2.00000
     45     -11.8232      2.00000
     46     -11.7731      2.00000
     47     -11.5630      2.00000
     48     -11.5454      2.00000
     49     -11.5225      2.00000
     50     -10.9289      2.00000
     51     -10.8175      2.00000
     52     -10.5299      2.00000
     53     -10.2059      2.00000
     54     -10.2036      2.00000
     55     -10.1939      2.00000
     56     -10.0948      2.00000
     57     -10.0520      2.00000
     58     -10.0218      2.00000
     59      -9.9025      2.00000
     60      -9.7514      2.00000
     61      -9.7479      2.00000
     62      -9.5642      2.00000
     63      -9.4407      2.00000
     64      -9.4072      2.00000
     65      -9.1990      2.00000
     66      -9.0463      2.00000
     67      -9.0322      2.00000
     68      -8.9016      2.00000
     69      -8.8856      2.00000
     70      -8.6862      2.00000
     71      -8.6369      2.00000
     72      -8.6351      2.00000
     73      -8.6238      2.00000
     74      -8.5831      2.00000
     75      -8.3742      2.00000
     76      -8.2518      2.00000
     77      -8.1646      2.00000
     78      -8.0343      2.00000
     79      -7.9835      2.00000
     80      -7.8795      2.00000
     81      -7.8580      2.00000
     82      -7.8548      2.00000
     83      -7.2250      2.00000
     84      -7.1853      2.00000
     85      -7.1297      2.00000
     86      -6.8829      2.00000
     87      -6.7210      2.00000
     88      -6.6127      2.00000
     89      -6.4600      2.00000
     90      -6.2675      2.00000
     91      -6.1024      2.00000
     92      -5.9164      2.00000
     93      -5.9111      2.00000
     94      -5.8976      2.00000
     95      -5.4516      2.00000
     96      -5.4252      2.00000
     97      -5.1219      2.00000
     98      -5.0140      2.00000
     99      -4.9801      2.00000
    100      -4.9577      2.00000
    101      -3.7322      2.00000
    102      -3.4581      2.00000
    103      -3.2797      2.00000
    104      -2.3871      0.00000
    105      -2.2239      0.00000
    106      -0.9285      0.00000
    107      -0.8821      0.00000
    108      -0.8677      0.00000
    109      -0.5384      0.00000
    110      -0.2636      0.00000
    111      -0.2109      0.00000
    112       0.2520      0.00000
    113       0.2582      0.00000
    114       0.2606      0.00000
    115       0.5987      0.00000
    116       0.7939      0.00000
    117       0.9467      0.00000
    118       0.9740      0.00000
    119       1.0622      0.00000
    120       1.7329      0.00000
    121       1.7452      0.00000
    122       1.7675      0.00000
    123       1.8267      0.00000
    124       2.1154      0.00000
    125       2.1197      0.00000
    126       2.1230      0.00000
    127       2.2467      0.00000
    128       2.2481      0.00000
    129       2.3619      0.00000
    130       2.9996      0.00000
    131       3.0122      0.00000
    132       3.0363      0.00000


--------------------------------------------------------------------------------------------------------


 soft charge-density along one line, spin component           1
         0         1         2         3         4         5         6         7         8         9
 total charge-density along one line
 
 pseudopotential strength for first ion, spin component:           1
 10.222  13.594   0.000  -0.000   0.000  -0.000   0.000  -0.000
 13.594  18.076   0.000  -0.000   0.000  -0.000   0.000  -0.000
  0.000   0.000  -4.352  -0.000  -0.000   8.513   0.000   0.000
 -0.000  -0.000  -0.000  -4.344  -0.000   0.000   8.502   0.000
  0.000   0.000  -0.000  -0.000  -4.352   0.000   0.000   8.513
 -0.000  -0.000   8.513   0.000   0.000 -18.786  -0.000  -0.000
  0.000   0.000   0.000   8.502   0.000  -0.000 -18.776  -0.000
 -0.000  -0.000   0.000   0.000   8.513  -0.000  -0.000 -18.787
 total augmentation occupancy for first ion, spin component:           1
  8.358  -3.740   0.001   0.000   0.003   0.000   0.000   0.001
 -3.740   1.729  -0.002  -0.000  -0.003  -0.000   0.000  -0.000
  0.001  -0.002   1.840  -0.000  -0.001   0.174   0.000   0.000
  0.000  -0.000  -0.000   1.223  -0.000   0.000   0.078   0.000
  0.003  -0.003  -0.001  -0.000   1.839   0.000   0.000   0.174
  0.000  -0.000   0.174   0.000   0.000   0.018   0.000   0.000
  0.000   0.000   0.000   0.078   0.000   0.000   0.005   0.000
  0.001  -0.000   0.000   0.000   0.174   0.000   0.000   0.018


------------------------ aborting loop because EDIFF is reached ----------------------------------------


    CHARGE:  cpu time    0.3150: real time    0.3154
    FORLOC:  cpu time    0.0295: real time    0.0295
    FORNL :  cpu time    1.6718: real time    1.6725
    STRESS:  cpu time    2.9548: real time    2.9564
    FORCOR:  cpu time    0.1277: real time    0.1277
    FORHAR:  cpu time    0.0497: real time    0.0500
    MIXING:  cpu time    0.0038: real time    0.0038
    OFIELD:  cpu time    0.0001: real time    0.0001

  FORCE on cell =-STRESS in cart. coord.  units (eV):
  Direction    XX          YY          ZZ          XY          YZ          ZX
  --------------------------------------------------------------------------------------
  Alpha Z    82.54348    82.54348    82.54348
  Ewald   41234.56692 41234.50227-47952.52636     0.05146    -0.05288    -0.09153
  Hartree 40516.75044 40516.69707-39998.67061     0.04618    -0.04891    -0.08471
  E(xc)    -777.15395  -777.15392  -804.23321    -0.00003     0.00000     0.00000
  Local  -83988.96791-83988.85175 85337.53867    -0.09842     0.10024     0.17358
  n-local  -203.75614  -204.11607  -194.69251    -0.10384    -0.19506     0.10239
  augment   -12.38074   -12.38003   -14.04723    -0.00060     0.00001     0.00004
  Kinetic  3161.31447  3166.94223  3596.27528     1.62154     1.50363    -0.85933
  Fock        0.00000     0.00000     0.00000     0.00000     0.00000     0.00000
  -------------------------------------------------------------------------------------
  Total      15.54816    15.55169    52.18750    -0.00306     0.00202     0.00350
  in kB       9.50646     9.50862    31.90849    -0.00187     0.00124     0.00214
  external pressure =       16.97 kB  Pullay stress =        0.00 kB


 VOLUME and BASIS-vectors are now :
 -----------------------------------------------------------------------------
  energy-cutoff  :      400.00
  volume of cell :     2620.42
      direct lattice vectors                 reciprocal lattice vectors
    12.300000191  0.000000000  0.000000000     0.081300812 -0.046939053  0.000000000
     6.150000804 10.652112223  0.000000000     0.000000000  0.093878095  0.000000000
     0.000000000  0.000000000 20.000000000     0.000000000  0.000000000  0.050000000

  length of vectors
    12.300000191 12.300000191 20.000000000     0.093878095  0.093878095  0.050000000


 FORCES acting on ions
    electron-ion (+dipol)            ewald-force                    non-local-force                 convergence-correction
 -----------------------------------------------------------------------------------------------
   -.148E+01 -.855E+00 0.283E+01   0.135E+01 0.778E+00 -.282E+01   0.852E-01 0.492E-01 0.719E-04   0.254E-03 0.147E-03 0.707E-03
   0.148E+01 -.856E+00 0.296E+01   -.135E+01 0.779E+00 -.294E+01   -.855E-01 0.491E-01 -.139E-01   0.852E-03 0.489E-03 0.941E-03
   0.370E+01 0.642E+01 0.398E+01   -.375E+01 -.649E+01 -.392E+01   -.114E+00 0.767E-01 -.847E-01   0.231E-03 0.186E-02 0.101E-02
   0.701E-03 0.129E+02 0.484E+01   -.137E-03 -.131E+02 -.498E+01   0.143E-03 0.130E-01 0.112E+00   -.777E-03 0.318E-02 -.144E-04
   -.370E+01 0.642E+01 0.383E+01   0.374E+01 -.649E+01 -.378E+01   0.114E+00 0.769E-01 -.715E-01   -.117E-02 0.228E-02 0.373E-03
   -.159E-02 0.171E+01 0.296E+01   0.890E-03 -.156E+01 -.294E+01   -.197E-03 -.986E-01 -.139E-01   0.849E-03 0.494E-03 0.941E-03
   0.117E+02 0.674E+01 0.166E+00   -.114E+02 -.656E+01 -.165E+00   0.109E+00 0.629E-01 -.146E+00   0.570E-03 0.329E-03 0.432E-02
   0.209E+02 0.362E+02 0.188E+02   -.214E+02 -.371E+02 -.192E+02   0.638E+00 0.654E+00 0.534E+00   0.173E-02 0.170E-02 0.912E-03
   -.209E+02 0.362E+02 0.187E+02   0.214E+02 -.371E+02 -.190E+02   -.638E+00 0.654E+00 0.547E+00   -.276E-02 0.253E-02 0.847E-04
   -.117E+02 0.673E+01 0.492E+01   0.113E+02 -.655E+01 -.497E+01   -.108E+00 0.622E-01 0.528E-01   -.144E-02 0.964E-03 0.123E-03
   0.741E+01 -.585E-02 0.398E+01   -.749E+01 -.927E-03 -.392E+01   0.943E-02 -.137E+00 -.847E-01   0.173E-02 -.729E-03 0.101E-02
   0.418E+02 -.399E-01 0.188E+02   -.428E+02 -.927E-03 -.192E+02   0.886E+00 0.226E+00 0.534E+00   0.234E-02 0.645E-03 0.912E-03
   0.218E-02 0.126E-02 0.291E+03   -.136E-03 -.162E-03 -.346E+03   -.802E-04 -.463E-04 0.713E+01   -.124E-02 -.715E-03 0.484E-02
   -.418E+02 -.404E-01 0.186E+02   0.428E+02 -.120E-03 -.190E+02   -.885E+00 0.226E+00 0.546E+00   -.241E-02 -.565E-03 -.565E-04
   -.741E+01 -.712E-02 0.385E+01   0.749E+01 -.162E-03 -.380E+01   -.989E-02 -.137E+00 -.723E-01   -.116E-02 -.433E-03 0.560E-03
   0.111E+02 -.643E+01 0.484E+01   -.113E+02 0.655E+01 -.498E+01   0.113E-01 -.638E-02 0.112E+00   0.236E-02 -.226E-02 -.144E-04
   0.210E+02 -.362E+02 0.187E+02   -.214E+02 0.371E+02 -.190E+02   0.247E+00 -.879E+00 0.547E+00   0.806E-03 -.366E-02 0.847E-04
   -.209E+02 -.362E+02 0.186E+02   0.214E+02 0.371E+02 -.190E+02   -.247E+00 -.880E+00 0.546E+00   -.169E-02 -.180E-02 -.565E-04
   -.111E+02 -.643E+01 0.482E+01   0.113E+02 0.655E+01 -.496E+01   -.113E-01 -.655E-02 0.112E+00   -.245E-02 -.141E-02 0.108E-03
   -.637E-03 -.148E+01 0.284E+01   -.283E-04 0.156E+01 -.281E+01   -.232E-03 -.861E-01 -.140E-01   0.687E-03 -.174E-02 0.607E-03
   0.371E+01 -.641E+01 0.383E+01   -.374E+01 0.649E+01 -.378E+01   0.124E+00 0.604E-01 -.715E-01   0.139E-02 -.215E-02 0.373E-03
   0.842E-04 -.135E+02 0.492E+01   -.263E-04 0.131E+02 -.497E+01   -.567E-04 -.124E+00 0.528E-01   0.113E-03 -.173E-02 0.123E-03
   -.371E+01 -.641E+01 0.385E+01   0.374E+01 0.649E+01 -.380E+01   -.124E+00 0.601E-01 -.723E-01   -.954E-03 -.785E-03 0.560E-03
   -.128E+01 0.740E+00 0.284E+01   0.135E+01 -.778E+00 -.281E+01   -.747E-01 0.428E-01 -.140E-01   -.116E-02 0.147E-02 0.607E-03
   0.128E+01 0.741E+00 0.283E+01   -.135E+01 -.778E+00 -.280E+01   0.747E-01 0.431E-01 -.151E-01   0.101E-02 0.586E-03 0.569E-03
   -.126E-02 -.644E-03 0.261E+01   0.493E-03 0.369E-03 -.260E+01   -.117E-03 -.676E-04 -.768E-02   0.840E-03 0.484E-03 0.737E-03
   0.531E+01 0.407E+01 0.419E+01   -.514E+01 -.429E+01 -.418E+01   -.713E-01 0.317E-02 0.645E-01   0.101E-02 0.187E-02 0.229E-02
   0.607E+01 0.171E+02 0.698E+01   -.581E+01 -.171E+02 -.660E+01   -.663E-01 0.161E+00 -.118E+00   0.505E-03 0.193E-02 0.532E-03
   -.607E+01 0.171E+02 0.690E+01   0.581E+01 -.171E+02 -.652E+01   0.662E-01 0.161E+00 -.121E+00   -.932E-03 0.341E-02 0.290E-03
   -.531E+01 0.407E+01 0.343E+01   0.514E+01 -.429E+01 -.340E+01   0.715E-01 0.337E-02 -.239E-01   -.114E-02 0.207E-02 0.428E-03
   0.617E+01 0.256E+01 0.419E+01   -.628E+01 -.231E+01 -.418E+01   -.329E-01 -.634E-01 0.645E-01   0.212E-02 -.613E-04 0.229E-02
   0.283E+02 0.163E+02 0.134E+02   -.286E+02 -.165E+02 -.139E+02   -.157E+00 -.907E-01 0.238E+00   0.115E-02 0.664E-03 0.225E-02
   -.516E-03 0.878E+02 0.587E+02   -.137E-03 -.922E+02 -.663E+02   -.220E-02 -.638E+00 0.330E+01   0.157E-02 0.324E-02 0.133E-02
   -.283E+02 0.163E+02 0.127E+02   0.286E+02 -.165E+02 -.132E+02   0.159E+00 -.914E-01 0.145E+00   -.248E-02 0.590E-03 0.779E-04
   -.618E+01 0.256E+01 0.346E+01   0.629E+01 -.230E+01 -.342E+01   0.327E-01 -.637E-01 -.268E-01   -.133E-02 0.334E-03 0.542E-03
   0.179E+02 -.331E+01 0.698E+01   -.177E+02 0.349E+01 -.660E+01   0.106E+00 -.138E+00 -.118E+00   0.192E-02 -.526E-03 0.532E-03
   0.760E+02 -.439E+02 0.587E+02   -.799E+02 0.461E+02 -.663E+02   -.554E+00 0.317E+00 0.330E+01   0.359E-02 -.262E-03 0.133E-02
   -.760E+02 -.439E+02 0.587E+02   0.799E+02 0.461E+02 -.663E+02   0.554E+00 0.320E+00 0.330E+01   -.342E-02 -.197E-02 -.694E-04
   -.179E+02 -.331E+01 0.690E+01   0.177E+02 0.349E+01 -.652E+01   -.106E+00 -.138E+00 -.121E+00   -.160E-02 -.705E-03 0.258E-03
   -.295E-03 -.607E+00 0.298E+01   0.159E-03 0.845E+00 -.295E+01   -.264E-03 -.154E+00 -.548E-01   0.444E-03 -.189E-02 0.565E-03
   0.118E+02 -.138E+02 0.690E+01   -.119E+02 0.136E+02 -.652E+01   0.172E+00 -.230E-01 -.121E+00   0.249E-02 -.252E-02 0.290E-03
   0.168E-03 -.327E+02 0.127E+02   0.462E-04 0.330E+02 -.132E+02   0.290E-03 0.183E+00 0.145E+00   -.727E-03 -.244E-02 0.779E-04
   -.118E+02 -.138E+02 0.690E+01   0.119E+02 0.136E+02 -.652E+01   -.172E+00 -.233E-01 -.121E+00   -.141E-02 -.103E-02 0.258E-03
   -.384E+01 -.222E+01 0.284E+01   0.378E+01 0.218E+01 -.288E+01   -.195E-01 -.113E-01 0.134E-01   -.199E-02 -.115E-02 0.594E-03
   0.384E+01 -.222E+01 0.285E+01   -.378E+01 0.218E+01 -.289E+01   0.194E-01 -.111E-01 0.128E-01   0.208E-02 -.193E-02 0.377E-03
   0.872E+00 -.663E+01 0.343E+01   -.115E+01 0.660E+01 -.340E+01   0.387E-01 0.602E-01 -.239E-01   0.122E-02 -.202E-02 0.428E-03
   -.873E+00 -.663E+01 0.346E+01   0.115E+01 0.660E+01 -.342E+01   -.388E-01 0.601E-01 -.268E-01   -.376E-03 -.132E-02 0.542E-03
   -.526E+00 0.303E+00 0.298E+01   0.732E+00 -.422E+00 -.295E+01   -.133E+00 0.767E-01 -.548E-01   -.141E-02 0.133E-02 0.565E-03
   0.548E-03 0.444E+01 0.285E+01   0.217E-04 -.437E+01 -.289E+01   0.569E-04 0.223E-01 0.128E-01   -.634E-03 0.277E-02 0.377E-03
   0.526E+00 0.304E+00 0.295E+01   -.732E+00 -.422E+00 -.292E+01   0.134E+00 0.771E-01 -.523E-01   0.748E-03 0.431E-03 0.368E-03
   -.176E-01 -.101E-01 -.722E+03   0.220E-01 0.127E-01 0.846E+03   -.113E-02 -.655E-03 -.638E+02   -.384E-02 -.222E-02 -.139E-01
 -----------------------------------------------------------------------------------------------
   0.470E-02 0.489E-02 0.440E+02   0.498E-13 0.916E-13 -.455E-12   -.135E-02 -.779E-03 -.440E+02   -.388E-02 -.225E-02 0.230E-01
 
 
 POSITION                                       TOTAL-FORCE (eV/Angst)
 -----------------------------------------------------------------------------------
      0.00000      0.00000      8.35995        -0.047660     -0.027517      0.010207
      2.46000      0.00000      8.35995         0.047568     -0.027568      0.004332
      4.92000      0.00000      8.35995        -0.158911      0.013981     -0.030915
      7.38000      0.00000      8.35995        -0.000113     -0.207739     -0.026211
      9.84000      0.00000      8.35995         0.159164      0.014278     -0.026236
      1.23000      2.13042      8.35995        -0.000090      0.054979      0.004332
      3.69000      2.13042      8.36995         0.428918      0.247636     -0.140240
      6.15000      2.13042      8.35995         0.095418     -0.205635      0.159156
      8.61000      2.13042      8.35995        -0.093926     -0.205181      0.165561
     11.07000      2.13042      8.35995        -0.428877      0.247694     -0.000341
      2.46000      4.26084      8.35995        -0.067348     -0.144612     -0.030915
      4.92000      4.26084      8.35995        -0.130376      0.185452      0.159156
      7.38000      4.26084      8.35995         0.000679      0.000392    -48.160024
      9.84000      4.26084      8.35995         0.129990      0.184683      0.165049
     12.30000      4.26084      8.35995         0.066981     -0.145012     -0.025236
      3.69000      6.39127      8.35995        -0.179964      0.103771     -0.026211
      6.15000      6.39127      8.35995        -0.224655      0.021248      0.165561
      8.61000      6.39127      8.35995         0.224935      0.020233      0.165049
     11.07000      6.39127      8.35995         0.179892      0.103860     -0.027177
     13.53000      6.39127      8.35995        -0.000253     -0.013064      0.017744
      4.92000      8.52169      8.35995         0.091947      0.130701     -0.026236
      7.38000      8.52169      8.35995         0.000071     -0.495266     -0.000341
      9.84000      8.52169      8.35995        -0.092094      0.130514     -0.025236
     12.30000      8.52169      8.35995        -0.011441      0.006313      0.017744
     14.76000      8.52169      8.35995         0.011139      0.006431      0.017735
      1.23000      0.71014      8.36012         0.000019      0.000011     -0.002104
      3.69000      0.71014      8.36012         0.097339     -0.216474      0.070539
      6.15000      0.71014      8.36012         0.193932      0.250540      0.260801
      8.61000      0.71014      8.36012        -0.194218      0.250474      0.256796
     11.07000      0.71014      8.36012        -0.097157     -0.217282      0.010059
      2.46000      2.84056      8.36012        -0.138803      0.192535      0.070539
      4.92000      2.84056      8.36012        -0.441860     -0.255108     -0.293140
      7.38000      2.84056      8.36012        -0.001223     -5.075458     -4.352465
      9.84000      2.84056      8.36012         0.441650     -0.255170     -0.354834
     12.30000      2.84056      8.36012         0.139505      0.192776      0.005109
      3.69000      4.97099      8.36012         0.313940      0.042680      0.260801
      6.15000      4.97099      8.36012        -4.396086      2.536670     -4.352465
      8.61000      4.97099      8.36012         4.396042      2.538056     -4.349150
     11.07000      4.97099      8.36012        -0.313912      0.043053      0.257660
     13.53000      4.97099      8.36012         0.000109      0.082262     -0.027193
      4.92000      7.10141      8.36012         0.119808     -0.293435      0.256796
      7.38000      7.10141      8.36012        -0.000159      0.510066     -0.354834
      9.84000      7.10141      8.36012        -0.119672     -0.293382      0.257660
     12.30000      7.10141      8.36012        -0.082116     -0.047409     -0.025954
     14.76000      7.10141      8.36012         0.082198     -0.047390     -0.026483
      6.15000      9.23183      8.36012        -0.236750      0.024500      0.010059
      8.61000      9.23183      8.36012         0.236701      0.024426      0.005109
     11.07000      9.23183      8.36012         0.071295     -0.041036     -0.027193
     13.53000      9.23183      8.36012         0.000058      0.094881     -0.026483
     15.99000      9.23183      8.36012        -0.071032     -0.041010     -0.021987
      7.38000      4.26084      9.36012        -0.000602     -0.000347     59.986049
 -----------------------------------------------------------------------------------
    total drift:                               -0.000534      0.001859     -0.000958


--------------------------------------------------------------------------------------------------------



  FREE ENERGIE OF THE ION-ELECTRON SYSTEM (eV)
  ---------------------------------------------------
  free  energy   TOTEN  =      -454.33985455 eV

  energy  without entropy=     -454.33974068  energy(sigma->0) =     -454.33979761
 


--------------------------------------------------------------------------------------------------------


    POTLOK:  cpu time    0.1787: real time    0.1791


--------------------------------------------------------------------------------------------------------


 stress matrix after NEB project (eV)
     15.54816     -0.00306      0.00350
     -0.00306     15.55169      0.00202
      0.00350      0.00202     52.18750
  FORCES: max atom, RMS    59.986049   10.896886
  FORCE total and by dimension   77.819334   59.986049
  Stress total and by dimension   56.631579   52.187502
     LOOP+:  cpu time   33.9278: real time   33.9683
    4ORBIT:  cpu time    0.0000: real time    0.0000

 total amount of memory used by VASP MPI-rank0    87233. kBytes
=======================================================================

   base      :      30000. kBytes
   nonl-proj :       7912. kBytes
   fftplans  :      26248. kBytes
   grid      :      14579. kBytes
   one-center:         21. kBytes
   wavefun   :       8473. kBytes
 
  
  
 General timing and accounting informations for this job:
 ========================================================
  
                  Total CPU time used (sec):       41.284
                            User time (sec):       38.765
                          System time (sec):        2.519
                         Elapsed time (sec):       41.435
  
                   Maximum memory used (kb):      368812.
                   Average memory used (kb):           0.
  
                          Minor page faults:       100443
                          Major page faults:            0
                 Voluntary context switches:         1173
