<?xml version="1.0" encoding="ISO-8859-1"?>
<modeling>
 <generator>
  <i name="program" type="string">vasp </i>
  <i name="version" type="string">5.4.4.18Apr17-6-g9f103f2a35  </i>
  <i name="subversion" type="string">(build Aug 13 2022 23:40:43) complex            parallel </i>
  <i name="platform" type="string">LinuxIFC </i>
  <i name="date" type="string">2024 11 10 </i>
  <i name="time" type="string">03:53:05 </i>
 </generator>
 <incar>
  <i type="int" name="ISTART">     1</i>
  <i type="string" name="PREC">accurate</i>
  <i type="string" name="ALGO"> F          N:DAV,fine,slow</i>
  <i type="logical" name="ADDGRID"> T  </i>
  <i type="int" name="ISPIN">     1</i>
  <i type="int" name="ICHARG">     1</i>
  <i type="int" name="NELM">   300</i>
  <i type="int" name="IBRION">    -1</i>
  <i name="EDIFF">      0.00001000</i>
  <i name="EDIFFG">     -0.00100000</i>
  <i type="int" name="NSW">     1</i>
  <i type="int" name="ISIF">     2</i>
  <i name="ENCUT">    400.00000000</i>
  <i type="logical" name="LREAL"> F  </i>
  <i type="int" name="ISMEAR">     0</i>
  <i name="SIGMA">      0.05000000</i>
  <i type="logical" name="LWAVE"> F  </i>
  <i type="logical" name="LCHARG"> F  </i>
  <v type="int" name="KPOINT_BSE">    -1     0     0     0</v>
  <i type="int" name="NELM">   300</i>
 </incar>
 <structure name="primitive_cell" >
  <crystal>
   <varray name="basis" >
    <v>      12.30000019       0.00000000       0.00000000 </v>
    <v>       6.15000080      10.65211222       0.00000000 </v>
    <v>       0.00000000       0.00000000      20.00000000 </v>
   </varray>
   <i name="volume">   2620.41964732 </i>
   <varray name="rec_basis" >
    <v>       0.08130081      -0.04693905       0.00000000 </v>
    <v>       0.00000000       0.09387809       0.00000000 </v>
    <v>       0.00000000       0.00000000       0.05000000 </v>
   </varray>
  </crystal>
  <varray name="positions" >
   <v>       0.00000000       0.00000000       0.41799748 </v>
   <v>       0.06666667       0.06666660       0.41800609 </v>
   <v>      -0.13333333       0.06666660       0.41800609 </v>
   <v>       0.06666667      -0.13333340       0.41800609 </v>
   <v>      -0.20000000       0.20000000       0.41799748 </v>
   <v>       0.20000000      -0.20000000       0.41799748 </v>
   <v>       0.20000000       0.00000000       0.41799748 </v>
   <v>      -0.20000000       0.00000000       0.41799748 </v>
   <v>       0.00000000       0.20000000       0.41799748 </v>
   <v>       0.00000000      -0.20000000       0.41799748 </v>
   <v>      -0.13333333       0.26666660       0.41800609 </v>
   <v>       0.26666667      -0.13333340       0.41800609 </v>
   <v>      -0.13333333      -0.13333340       0.41800609 </v>
   <v>       0.06666667       0.26666660       0.41800609 </v>
   <v>      -0.33333333       0.26666660       0.41800609 </v>
   <v>       0.26666667       0.06666660       0.41800609 </v>
   <v>      -0.33333333       0.06666660       0.41800609 </v>
   <v>       0.26666667      -0.33333340       0.41800609 </v>
   <v>       0.06666667      -0.33333340       0.41800609 </v>
   <v>      -0.40000000       0.20000000       0.41799748 </v>
   <v>       0.40000000      -0.20000000       0.41799748 </v>
   <v>      -0.20000000       0.40000000       0.41799748 </v>
   <v>       0.20000000      -0.40000000       0.41799748 </v>
   <v>      -0.20000000      -0.20000000       0.41799748 </v>
   <v>       0.20000000       0.20000000       0.41849748 </v>
   <v>      -0.40000000       0.40000000       0.41799748 </v>
   <v>       0.40000000      -0.40000000       0.41799748 </v>
   <v>       0.40000000       0.00000000       0.41799748 </v>
   <v>      -0.40000000       0.00000000       0.41799748 </v>
   <v>       0.00000000       0.40000000       0.41799748 </v>
   <v>       0.00000000      -0.40000000       0.41799748 </v>
   <v>      -0.13333333       0.46666660       0.41800609 </v>
   <v>      -0.33333333       0.46666660       0.41800609 </v>
   <v>       0.46666667      -0.13333340       0.41800609 </v>
   <v>       0.46666667      -0.33333340       0.41800609 </v>
   <v>      -0.33333333      -0.13333340       0.41800609 </v>
   <v>      -0.13333333      -0.33333340       0.41800609 </v>
   <v>       0.26666667       0.26666660       0.41800609 </v>
   <v>       0.46666667       0.26666660       0.41800609 </v>
   <v>       0.26666667       0.46666660       0.41800609 </v>
   <v>       0.06666667       0.46666660       0.41800609 </v>
   <v>       0.46666667       0.46666660       0.41800609 </v>
   <v>       0.46666667       0.06666660       0.41800609 </v>
   <v>       0.40000000       0.40000000       0.41799748 </v>
   <v>      -0.40000000      -0.40000000       0.41799748 </v>
   <v>       0.40000000       0.20000000       0.41799748 </v>
   <v>      -0.40000000      -0.20000000       0.41799748 </v>
   <v>       0.20000000       0.40000000       0.41799748 </v>
   <v>      -0.20000000      -0.40000000       0.41799748 </v>
   <v>       0.40000000       0.40000000       0.46800609 </v>
   <v>      -0.33333333      -0.33333340       0.41800609 </v>
  </varray>
 </structure>
 <varray name="primitive_index" >
  <v type="int" >        1 </v>
  <v type="int" >       26 </v>
  <v type="int" >       30 </v>
  <v type="int" >       46 </v>
  <v type="int" >       10 </v>
  <v type="int" >       22 </v>
  <v type="int" >        2 </v>
  <v type="int" >        5 </v>
  <v type="int" >        6 </v>
  <v type="int" >       21 </v>
  <v type="int" >       35 </v>
  <v type="int" >       47 </v>
  <v type="int" >       50 </v>
  <v type="int" >       31 </v>
  <v type="int" >       34 </v>
  <v type="int" >       27 </v>
  <v type="int" >       29 </v>
  <v type="int" >       42 </v>
  <v type="int" >       41 </v>
  <v type="int" >        9 </v>
  <v type="int" >       23 </v>
  <v type="int" >       15 </v>
  <v type="int" >       17 </v>
  <v type="int" >       25 </v>
  <v type="int" >        7 </v>
  <v type="int" >       14 </v>
  <v type="int" >       18 </v>
  <v type="int" >        3 </v>
  <v type="int" >        4 </v>
  <v type="int" >       11 </v>
  <v type="int" >       16 </v>
  <v type="int" >       40 </v>
  <v type="int" >       39 </v>
  <v type="int" >       48 </v>
  <v type="int" >       43 </v>
  <v type="int" >       49 </v>
  <v type="int" >       45 </v>
  <v type="int" >       32 </v>
  <v type="int" >       33 </v>
  <v type="int" >       37 </v>
  <v type="int" >       36 </v>
  <v type="int" >       38 </v>
  <v type="int" >       28 </v>
  <v type="int" >       13 </v>
  <v type="int" >       19 </v>
  <v type="int" >        8 </v>
  <v type="int" >       24 </v>
  <v type="int" >       12 </v>
  <v type="int" >       20 </v>
  <v type="int" >       51 </v>
  <v type="int" >       44 </v>
 </varray>
 <kpoints>
  <generation param="Gamma">
   <v type="int" name="divisions">       3        3        1 </v>
   <v name="usershift">      0.00000000       0.00000000       0.00000000 </v>
   <v name="genvec1">      0.33333333      -0.00000000       0.00000000 </v>
   <v name="genvec2">      0.00000000       0.33333333       0.00000000 </v>
   <v name="genvec3">      0.00000000       0.00000000       1.00000000 </v>
   <v name="shift">      0.00000000       0.00000000       0.00000000 </v>
  </generation>
  <varray name="kpointlist" >
   <v>       0.00000000       0.00000000       0.00000000 </v>
   <v>       0.33333333       0.00000000       0.00000000 </v>
   <v>       0.33333333       0.33333333       0.00000000 </v>
   <v>      -0.33333333       0.33333333       0.00000000 </v>
  </varray>
  <varray name="weights" >
   <v>       0.11111111 </v>
   <v>       0.44444444 </v>
   <v>       0.22222222 </v>
   <v>       0.22222222 </v>
  </varray>
 </kpoints>
 <parameters>
  <separator name="general" >
   <i type="string" name="SYSTEM"></i>
   <i type="logical" name="LCOMPAT"> F  </i>
  </separator>
  <separator name="electronic" >
   <i type="string" name="PREC">accura</i>
   <i name="ENMAX">    400.00000000</i>
   <i name="ENAUG">    644.87300000</i>
   <i name="EDIFF">      0.00001000</i>
   <i type="int" name="IALGO">    68</i>
   <i type="int" name="IWAVPR">    10</i>
   <i type="int" name="NBANDS">   132</i>
   <i name="NELECT">    206.00000000</i>
   <i type="int" name="TURBO">     0</i>
   <i type="int" name="IRESTART">     0</i>
   <i type="int" name="NREBOOT">     0</i>
   <i type="int" name="NMIN">     0</i>
   <i name="EREF">      0.00000000</i>
   <separator name="electronic smearing" >
    <i type="int" name="ISMEAR">     0</i>
    <i name="SIGMA">      0.05000000</i>
    <i name="KSPACING">      0.50000000</i>
    <i type="logical" name="KGAMMA"> T  </i>
   </separator>
   <separator name="electronic projectors" >
    <i type="logical" name="LREAL"> F  </i>
    <v name="ROPT">      0.00000000      0.00000000</v>
    <i type="int" name="LMAXPAW">  -100</i>
    <i type="int" name="LMAXMIX">     2</i>
    <i type="logical" name="NLSPLINE"> F  </i>
   </separator>
   <separator name="electronic startup" >
    <i type="int" name="ISTART">     1</i>
    <i type="int" name="ICHARG">     1</i>
    <i type="int" name="INIWAV">     1</i>
   </separator>
   <separator name="electronic spin" >
    <i type="int" name="ISPIN">     1</i>
    <i type="logical" name="LNONCOLLINEAR"> F  </i>
    <v name="MAGMOM">      1.00000000      1.00000000      1.00000000      1.00000000      1.00000000      1.00000000      1.00000000      1.00000000      1.00000000      1.00000000      1.00000000      1.00000000      1.00000000      1.00000000      1.00000000      1.00000000      1.00000000      1.00000000      1.00000000      1.00000000
      1.00000000      1.00000000      1.00000000      1.00000000      1.00000000      1.00000000      1.00000000      1.00000000      1.00000000      1.00000000      1.00000000      1.00000000      1.00000000      1.00000000      1.00000000      1.00000000      1.00000000      1.00000000      1.00000000      1.00000000
      1.00000000      1.00000000      1.00000000      1.00000000      1.00000000      1.00000000      1.00000000      1.00000000      1.00000000      1.00000000      1.00000000</v>
    <i name="NUPDOWN">     -1.00000000</i>
    <i type="logical" name="LSORBIT"> F  </i>
    <v name="SAXIS">      0.00000000      0.00000000      1.00000000</v>
    <i type="logical" name="LSPIRAL"> F  </i>
    <v name="QSPIRAL">      0.00000000      0.00000000      0.00000000</v>
    <i type="logical" name="LZEROZ"> F  </i>
   </separator>
   <separator name="electronic exchange-correlation" >
    <i type="logical" name="LASPH"> F  </i>
    <i type="logical" name="LMETAGGA"> F  </i>
   </separator>
   <separator name="electronic convergence" >
    <i type="int" name="NELM">   300</i>
    <i type="int" name="NELMDL">     0</i>
    <i type="int" name="NELMIN">     2</i>
    <i name="ENINI">    400.00000000</i>
    <separator name="electronic convergence detail" >
     <i type="logical" name="LDIAG"> T  </i>
     <i type="logical" name="LSUBROT"> F  </i>
     <i name="WEIMIN">      0.00000000</i>
     <i name="EBREAK">      0.00000002</i>
     <i name="DEPER">      0.30000000</i>
     <i type="int" name="NRMM">     4</i>
     <i name="TIME">      0.40000000</i>
    </separator>
   </separator>
   <separator name="electronic mixer" >
    <i name="AMIX">      0.40000000</i>
    <i name="BMIX">      1.00000000</i>
    <i name="AMIN">      0.10000000</i>
    <i name="AMIX_MAG">      1.60000000</i>
    <i name="BMIX_MAG">      1.00000000</i>
    <separator name="electronic mixer details" >
     <i type="int" name="IMIX">     4</i>
     <i type="logical" name="MIXFIRST"> F  </i>
     <i type="int" name="MAXMIX">   -45</i>
     <i name="WC">    100.00000000</i>
     <i type="int" name="INIMIX">     1</i>
     <i type="int" name="MIXPRE">     1</i>
     <i type="int" name="MREMOVE">     5</i>
    </separator>
   </separator>
   <separator name="electronic dipolcorrection" >
    <i type="logical" name="LDIPOL"> F  </i>
    <i type="logical" name="LMONO"> F  </i>
    <i type="int" name="IDIPOL">     0</i>
    <i name="EPSILON">      1.00000000</i>
    <v name="DIPOL">   -100.00000000   -100.00000000   -100.00000000</v>
    <i name="EFIELD">      0.00000000</i>
   </separator>
  </separator>
  <separator name="grids" >
   <i type="int" name="NGX">    80</i>
   <i type="int" name="NGY">    80</i>
   <i type="int" name="NGZ">   140</i>
   <i type="int" name="NGXF">   160</i>
   <i type="int" name="NGYF">   160</i>
   <i type="int" name="NGZF">   280</i>
   <i type="logical" name="ADDGRID"> T  </i>
  </separator>
  <separator name="ionic" >
   <i type="int" name="NSW">     1</i>
   <i type="int" name="IBRION">    -1</i>
   <i type="int" name="MDALGO">     0</i>
   <i type="int" name="ISIF">     2</i>
   <i name="PSTRESS">      0.00000000</i>
   <i name="EDIFFG">     -0.00100000</i>
   <i type="int" name="NFREE">     0</i>
   <i name="POTIM">      0.50000000</i>
   <i name="SMASS">     -3.00000000</i>
   <i name="SCALEE">      1.00000000</i>
  </separator>
  <separator name="ionic md" >
   <i name="TEBEG">      0.00010000</i>
   <i name="TEEND">      0.00010000</i>
   <i type="int" name="NBLOCK">     1</i>
   <i type="int" name="KBLOCK">     1</i>
   <i type="int" name="NPACO">   256</i>
   <i name="APACO">     16.00000000</i>
  </separator>
  <separator name="symmetry" >
   <i type="int" name="ISYM">     2</i>
   <i name="SYMPREC">      0.00001000</i>
  </separator>
  <separator name="dos" >
   <i type="int" name="LORBIT">     0</i>
   <v name="RWIGS">     -1.00000000     -1.00000000</v>
   <i type="int" name="NEDOS">   301</i>
   <i name="EMIN">     10.00000000</i>
   <i name="EMAX">    -10.00000000</i>
   <i name="EFERMI">      0.00000000</i>
  </separator>
  <separator name="writing" >
   <i type="int" name="NWRITE">     2</i>
   <i type="logical" name="LWAVE"> F  </i>
   <i type="logical" name="LDOWNSAMPLE"> F  </i>
   <i type="logical" name="LCHARG"> F  </i>
   <i type="logical" name="LPARD"> F  </i>
   <i type="logical" name="LVTOT"> F  </i>
   <i type="logical" name="LVHAR"> F  </i>
   <i type="logical" name="LELF"> F  </i>
   <i type="logical" name="LOPTICS"> F  </i>
   <v name="STM">      0.00000000      0.00000000      0.00000000      0.00000000      0.00000000      0.00000000      0.00000000</v>
  </separator>
  <separator name="performance" >
   <i type="int" name="NPAR">     6</i>
   <i type="int" name="NSIM">     4</i>
   <i type="int" name="NBLK">    -1</i>
   <i type="logical" name="LPLANE"> T  </i>
   <i type="logical" name="LSCALAPACK"> T  </i>
   <i type="logical" name="LSCAAWARE"> F  </i>
   <i type="logical" name="LSCALU"> F  </i>
   <i type="logical" name="LASYNC"> F  </i>
   <i type="logical" name="LORBITALREAL"> F  </i>
  </separator>
  <separator name="miscellaneous" >
   <i type="int" name="IDIOT">     3</i>
   <i type="int" name="ISPECIAL">     0</i>
   <i type="logical" name="LMUSIC"> F  </i>
   <v name="POMASS">     12.01100000     16.00000000</v>
   <v name="DARWINR">      0.00000000      0.00000000</v>
   <v name="DARWINV">      1.00000000      1.00000000</v>
   <i type="logical" name="LCORR"> T  </i>
  </separator>
  <i type="logical" name="GGA_COMPAT"> T  </i>
  <i type="logical" name="LBERRY"> F  </i>
  <i type="int" name="ICORELEVEL">     0</i>
  <i type="logical" name="LDAU"> F  </i>
  <i type="int" name="I_CONSTRAINED_M">     0</i>
  <separator name="electronic exchange-correlation" >
   <i type="string" name="GGA">--</i>
   <i type="int" name="VOSKOWN">     0</i>
   <i type="logical" name="LHFCALC"> F  </i>
   <i type="string" name="PRECFOCK"></i>
   <i type="logical" name="LSYMGRAD"> F  </i>
   <i type="logical" name="LHFONE"> F  </i>
   <i type="logical" name="LRHFCALC"> F  </i>
   <i type="logical" name="LTHOMAS"> F  </i>
   <i type="logical" name="LMODELHF"> F  </i>
   <i name="ENCUT4O">     -1.00000000</i>
   <i type="int" name="EXXOEP">     0</i>
   <i type="int" name="FOURORBIT">     0</i>
   <i name="AEXX">      0.00000000</i>
   <i name="HFALPHA">      0.00000000</i>
   <i name="MCALPHA">      0.00000000</i>
   <i name="ALDAX">      1.00000000</i>
   <i name="AGGAX">      1.00000000</i>
   <i name="ALDAC">      1.00000000</i>
   <i name="AGGAC">      1.00000000</i>
   <i type="int" name="NKREDX">     1</i>
   <i type="int" name="NKREDY">     1</i>
   <i type="int" name="NKREDZ">     1</i>
   <i type="logical" name="SHIFTRED"> F  </i>
   <i type="logical" name="ODDONLY"> F  </i>
   <i type="logical" name="EVENONLY"> F  </i>
   <i type="int" name="LMAXFOCK">     0</i>
   <i type="int" name="NMAXFOCKAE">     0</i>
   <i type="logical" name="LFOCKAEDFT"> F  </i>
   <i name="HFSCREEN">      0.00000000</i>
   <i name="HFSCREENC">      0.00000000</i>
   <i type="int" name="NBANDSGWLOW">     0</i>
  </separator>
  <separator name="vdW DFT" >
   <i type="logical" name="LUSE_VDW"> F  </i>
   <i name="Zab_VDW">     -0.84910000</i>
   <i name="PARAM1">      0.12340000</i>
   <i name="PARAM2">      1.00000000</i>
   <i name="PARAM3">      0.00000000</i>
  </separator>
  <separator name="model GW" >
   <i type="int" name="MODEL_GW">     0</i>
   <i name="MODEL_EPS0">     30.82846644</i>
   <i name="MODEL_ALPHA">      1.00000000</i>
  </separator>
  <separator name="linear response parameters" >
   <i type="logical" name="LEPSILON"> F  </i>
   <i type="logical" name="LRPA"> F  </i>
   <i type="logical" name="LNABLA"> F  </i>
   <i type="logical" name="LVEL"> F  </i>
   <i type="int" name="KINTER">     0</i>
   <i name="CSHIFT">      0.10000000</i>
   <i name="OMEGAMAX">     -1.00000000</i>
   <i name="DEG_THRESHOLD">      0.00200000</i>
   <i name="RTIME">     -0.10000000</i>
   <i name="WPLASMAI">      0.00000000</i>
   <v name="DFIELD">      0.00000000      0.00000000      0.00000000</v>
   <v name="WPLASMA">      0.00000000      0.00000000      0.00000000      0.00000000      0.00000000      0.00000000      0.00000000      0.00000000      0.00000000</v>
  </separator>
  <separator name="orbital magnetization" >
   <i type="logical" name="NUCIND"> F  </i>
   <v name="MAGPOS">      0.00000000      0.00000000      0.00000000</v>
   <i type="logical" name="LNICSALL"> T  </i>
   <i type="logical" name="ORBITALMAG"> F  </i>
   <i type="logical" name="LMAGBLOCH"> F  </i>
   <i type="logical" name="LCHIMAG"> F  </i>
   <i type="logical" name="LGAUGE"> T  </i>
   <i type="int" name="MAGATOM">     0</i>
   <v name="MAGDIPOL">      0.00000000      0.00000000      0.00000000</v>
   <v name="AVECCONST">      0.00000000      0.00000000      0.00000000</v>
  </separator>
  <separator name="response functions" >
   <i type="logical" name="LADDER"> F  </i>
   <i type="logical" name="LRPAFORCE"> F  </i>
   <i type="logical" name="LFXC"> F  </i>
   <i type="logical" name="LHARTREE"> T  </i>
   <i type="int" name="IBSE">     0</i>
   <v type="int" name="KPOINT">    -1     0     0     0</v>
   <i type="logical" name="LTCTE"> F  </i>
   <i type="logical" name="LTETE"> F  </i>
   <i type="logical" name="LTRIPLET"> F  </i>
   <i type="logical" name="LFXCEPS"> F  </i>
   <i type="logical" name="LFXHEG"> F  </i>
   <i type="int" name="NATURALO">     2</i>
   <i type="logical" name="L2ORDER"> F  </i>
   <i type="logical" name="LMP2LT"> F  </i>
   <i type="logical" name="LUSEW"> F  </i>
   <i name="ENCUTGW">     -2.00000000</i>
   <i name="ENCUTGWSOFT">     -2.00000000</i>
   <i name="ENCUTLF">     -1.00000000</i>
   <i type="int" name="LMAXMP2">    -1</i>
   <i name="SCISSOR">      0.00000000</i>
   <i type="int" name="NOMEGA">     0</i>
   <i type="int" name="NOMEGAR">     0</i>
   <i type="int" name="NBANDSGW">    -1</i>
   <i type="int" name="NBANDSO">    -1</i>
   <i type="int" name="NBANDSV">    -1</i>
   <i type="int" name="NELM">   300</i>
   <i type="int" name="NELMHF">     1</i>
   <i type="int" name="DIM">     3</i>
   <i type="int" name="ANTIRES">     0</i>
   <i name="OMEGAMAX">    -30.00000000</i>
   <i name="OMEGAMIN">    -30.00000000</i>
   <i name="OMEGATL">   -200.00000000</i>
   <i type="int" name="OMEGAGRID">   140</i>
   <i name="CSHIFT">     -0.10000000</i>
   <i type="logical" name="SELFENERGY"> F  </i>
   <i type="logical" name="LSPECTRAL"> F  </i>
   <i type="logical" name="LSPECTRALGW"> F  </i>
   <i type="logical" name="LSINGLES"> F  </i>
   <i type="logical" name="LFERMIGW"> F  </i>
   <i type="logical" name="ODDONLYGW"> F  </i>
   <i type="logical" name="EVENONLYGW"> F  </i>
   <i type="int" name="NKREDLFX">     1</i>
   <i type="int" name="NKREDLFY">     1</i>
   <i type="int" name="NKREDLFZ">     1</i>
   <i type="int" name="MAXMEM">  2800</i>
   <i type="int" name="TELESCOPE">     0</i>
   <i type="int" name="TAUPAR">     1</i>
   <i type="int" name="OMEGAPAR">    -1</i>
   <i name="LAMBDA">      1.00000000</i>
  </separator>
  <separator name="External order field" >
   <i name="OFIELD_KAPPA">      0.00000000</i>
   <v name="OFIELD_K">      0.00000000      0.00000000      0.00000000</v>
   <i name="OFIELD_Q6_NEAR">      0.00000000</i>
   <i name="OFIELD_Q6_FAR">      0.00000000</i>
   <i name="OFIELD_A">      0.00000000</i>
  </separator>
 </parameters>
 <atominfo>
  <atoms>      51 </atoms>
  <types>       2 </types>
  <array name="atoms" >
   <dimension dim="1">ion</dimension>
   <field type="string">element</field>
   <field type="int">atomtype</field>
   <set>
    <rc><c>C </c><c>   1</c></rc>
    <rc><c>C </c><c>   1</c></rc>
    <rc><c>C </c><c>   1</c></rc>
    <rc><c>C </c><c>   1</c></rc>
    <rc><c>C </c><c>   1</c></rc>
    <rc><c>C </c><c>   1</c></rc>
    <rc><c>C </c><c>   1</c></rc>
    <rc><c>C </c><c>   1</c></rc>
    <rc><c>C </c><c>   1</c></rc>
    <rc><c>C </c><c>   1</c></rc>
    <rc><c>C </c><c>   1</c></rc>
    <rc><c>C </c><c>   1</c></rc>
    <rc><c>C </c><c>   1</c></rc>
    <rc><c>C </c><c>   1</c></rc>
    <rc><c>C </c><c>   1</c></rc>
    <rc><c>C </c><c>   1</c></rc>
    <rc><c>C </c><c>   1</c></rc>
    <rc><c>C </c><c>   1</c></rc>
    <rc><c>C </c><c>   1</c></rc>
    <rc><c>C </c><c>   1</c></rc>
    <rc><c>C </c><c>   1</c></rc>
    <rc><c>C </c><c>   1</c></rc>
    <rc><c>C </c><c>   1</c></rc>
    <rc><c>C </c><c>   1</c></rc>
    <rc><c>C </c><c>   1</c></rc>
    <rc><c>C </c><c>   1</c></rc>
    <rc><c>C </c><c>   1</c></rc>
    <rc><c>C </c><c>   1</c></rc>
    <rc><c>C </c><c>   1</c></rc>
    <rc><c>C </c><c>   1</c></rc>
    <rc><c>C </c><c>   1</c></rc>
    <rc><c>C </c><c>   1</c></rc>
    <rc><c>C </c><c>   1</c></rc>
    <rc><c>C </c><c>   1</c></rc>
    <rc><c>C </c><c>   1</c></rc>
    <rc><c>C </c><c>   1</c></rc>
    <rc><c>C </c><c>   1</c></rc>
    <rc><c>C </c><c>   1</c></rc>
    <rc><c>C </c><c>   1</c></rc>
    <rc><c>C </c><c>   1</c></rc>
    <rc><c>C </c><c>   1</c></rc>
    <rc><c>C </c><c>   1</c></rc>
    <rc><c>C </c><c>   1</c></rc>
    <rc><c>C </c><c>   1</c></rc>
    <rc><c>C </c><c>   1</c></rc>
    <rc><c>C </c><c>   1</c></rc>
    <rc><c>C </c><c>   1</c></rc>
    <rc><c>C </c><c>   1</c></rc>
    <rc><c>C </c><c>   1</c></rc>
    <rc><c>C </c><c>   1</c></rc>
    <rc><c>O </c><c>   2</c></rc>
   </set>
  </array>
  <array name="atomtypes" >
   <dimension dim="1">type</dimension>
   <field type="int">atomspertype</field>
   <field type="string">element</field>
   <field>mass</field>
   <field>valence</field>
   <field type="string">pseudopotential</field>
   <set>
    <rc><c>  50</c><c>C </c><c>     12.01100000</c><c>      4.00000000</c><c>  PAW_PBE C 08Apr2002                   </c></rc>
    <rc><c>   1</c><c>O </c><c>     16.00000000</c><c>      6.00000000</c><c>  PAW_PBE O 08Apr2002                   </c></rc>
   </set>
  </array>
 </atominfo>
 <structure name="initialpos" >
  <crystal>
   <varray name="basis" >
    <v>      12.30000019       0.00000000       0.00000000 </v>
    <v>       6.15000080      10.65211222       0.00000000 </v>
    <v>       0.00000000       0.00000000      20.00000000 </v>
   </varray>
   <i name="volume">   2620.41964732 </i>
   <varray name="rec_basis" >
    <v>       0.08130081      -0.04693905       0.00000000 </v>
    <v>       0.00000000       0.09387809       0.00000000 </v>
    <v>       0.00000000       0.00000000       0.05000000 </v>
   </varray>
  </crystal>
  <varray name="positions" >
   <v>       0.00000000       0.00000000       0.41799748 </v>
   <v>       0.20000000       0.00000000       0.41799748 </v>
   <v>       0.40000000       0.00000000       0.41799748 </v>
   <v>       0.60000000       0.00000000       0.41799748 </v>
   <v>       0.80000000       0.00000000       0.41799748 </v>
   <v>       0.00000000       0.20000000       0.41799748 </v>
   <v>       0.20000000       0.20000000       0.41849748 </v>
   <v>       0.40000000       0.20000000       0.41799748 </v>
   <v>       0.60000000       0.20000000       0.41799748 </v>
   <v>       0.80000000       0.20000000       0.41799748 </v>
   <v>       0.00000000       0.40000000       0.41799748 </v>
   <v>       0.20000000       0.40000000       0.41799748 </v>
   <v>       0.40000000       0.40000000       0.41799748 </v>
   <v>       0.60000000       0.40000000       0.41799748 </v>
   <v>       0.80000000       0.40000000       0.41799748 </v>
   <v>       0.00000000       0.60000000       0.41799748 </v>
   <v>       0.20000000       0.60000000       0.41799748 </v>
   <v>       0.40000000       0.60000000       0.41799748 </v>
   <v>       0.60000000       0.60000000       0.41799748 </v>
   <v>       0.80000000       0.60000000       0.41799748 </v>
   <v>       0.00000000       0.80000000       0.41799748 </v>
   <v>       0.20000000       0.80000000       0.41799748 </v>
   <v>       0.40000000       0.80000000       0.41799748 </v>
   <v>       0.60000000       0.80000000       0.41799748 </v>
   <v>       0.80000000       0.80000000       0.41799748 </v>
   <v>       0.06666667       0.06666660       0.41800609 </v>
   <v>       0.26666667       0.06666660       0.41800609 </v>
   <v>       0.46666667       0.06666660       0.41800609 </v>
   <v>       0.66666667       0.06666660       0.41800609 </v>
   <v>       0.86666667       0.06666660       0.41800609 </v>
   <v>       0.06666667       0.26666660       0.41800609 </v>
   <v>       0.26666667       0.26666660       0.41800609 </v>
   <v>       0.46666667       0.26666660       0.41800609 </v>
   <v>       0.66666667       0.26666660       0.41800609 </v>
   <v>       0.86666667       0.26666660       0.41800609 </v>
   <v>       0.06666667       0.46666660       0.41800609 </v>
   <v>       0.26666667       0.46666660       0.41800609 </v>
   <v>       0.46666667       0.46666660       0.41800609 </v>
   <v>       0.66666667       0.46666660       0.41800609 </v>
   <v>       0.86666667       0.46666660       0.41800609 </v>
   <v>       0.06666667       0.66666660       0.41800609 </v>
   <v>       0.26666667       0.66666660       0.41800609 </v>
   <v>       0.46666667       0.66666660       0.41800609 </v>
   <v>       0.66666667       0.66666660       0.41800609 </v>
   <v>       0.86666667       0.66666660       0.41800609 </v>
   <v>       0.06666667       0.86666660       0.41800609 </v>
   <v>       0.26666667       0.86666660       0.41800609 </v>
   <v>       0.46666667       0.86666660       0.41800609 </v>
   <v>       0.66666667       0.86666660       0.41800609 </v>
   <v>       0.86666667       0.86666660       0.41800609 </v>
   <v>       0.40000000       0.40000000       0.46800609 </v>
  </varray>
  <varray name="velocities" >
   <v>       0.00000000       0.00000000       0.00000000 </v>
   <v>       0.00000000       0.00000000       0.00000000 </v>
   <v>       0.00000000       0.00000000       0.00000000 </v>
   <v>       0.00000000       0.00000000       0.00000000 </v>
   <v>       0.00000000       0.00000000       0.00000000 </v>
   <v>       0.00000000       0.00000000       0.00000000 </v>
   <v>       0.00000000       0.00000000       0.00000000 </v>
   <v>       0.00000000       0.00000000       0.00000000 </v>
   <v>       0.00000000       0.00000000       0.00000000 </v>
   <v>       0.00000000       0.00000000       0.00000000 </v>
   <v>       0.00000000       0.00000000       0.00000000 </v>
   <v>       0.00000000       0.00000000       0.00000000 </v>
   <v>       0.00000000       0.00000000       0.00000000 </v>
   <v>       0.00000000       0.00000000       0.00000000 </v>
   <v>       0.00000000       0.00000000       0.00000000 </v>
   <v>       0.00000000       0.00000000       0.00000000 </v>
   <v>       0.00000000       0.00000000       0.00000000 </v>
   <v>       0.00000000       0.00000000       0.00000000 </v>
   <v>       0.00000000       0.00000000       0.00000000 </v>
   <v>       0.00000000       0.00000000       0.00000000 </v>
   <v>       0.00000000       0.00000000       0.00000000 </v>
   <v>       0.00000000       0.00000000       0.00000000 </v>
   <v>       0.00000000       0.00000000       0.00000000 </v>
   <v>       0.00000000       0.00000000       0.00000000 </v>
   <v>       0.00000000       0.00000000       0.00000000 </v>
   <v>       0.00000000       0.00000000       0.00000000 </v>
   <v>       0.00000000       0.00000000       0.00000000 </v>
   <v>       0.00000000       0.00000000       0.00000000 </v>
   <v>       0.00000000       0.00000000       0.00000000 </v>
   <v>       0.00000000       0.00000000       0.00000000 </v>
   <v>       0.00000000       0.00000000       0.00000000 </v>
   <v>       0.00000000       0.00000000       0.00000000 </v>
   <v>       0.00000000       0.00000000       0.00000000 </v>
   <v>       0.00000000       0.00000000       0.00000000 </v>
   <v>       0.00000000       0.00000000       0.00000000 </v>
   <v>       0.00000000       0.00000000       0.00000000 </v>
   <v>       0.00000000       0.00000000       0.00000000 </v>
   <v>       0.00000000       0.00000000       0.00000000 </v>
   <v>       0.00000000       0.00000000       0.00000000 </v>
   <v>       0.00000000       0.00000000       0.00000000 </v>
   <v>       0.00000000       0.00000000       0.00000000 </v>
   <v>       0.00000000       0.00000000       0.00000000 </v>
   <v>       0.00000000       0.00000000       0.00000000 </v>
   <v>       0.00000000       0.00000000       0.00000000 </v>
   <v>       0.00000000       0.00000000       0.00000000 </v>
   <v>       0.00000000       0.00000000       0.00000000 </v>
   <v>       0.00000000       0.00000000       0.00000000 </v>
   <v>       0.00000000       0.00000000       0.00000000 </v>
   <v>       0.00000000       0.00000000       0.00000000 </v>
   <v>       0.00000000       0.00000000       0.00000000 </v>
   <v>       0.00000000       0.00000000       0.00000000 </v>
  </varray>
 </structure>
 <calculation>
  <scstep>
   <time name="dav">    3.29    3.29</time>
   <time name="total">    3.80    3.81</time>
   <energy>
    <i name="alphaZ">     82.54348252 </i>
    <i name="ewald">  34516.56348528 </i>
    <i name="hartreedc"> -41034.87815970 </i>
    <i name="XCdc">    721.37964220 </i>
    <i name="pawpsdc">  22781.19595426 </i>
    <i name="pawaedc"> -22817.52509957 </i>
    <i name="eentropy">     -0.00050052 </i>
    <i name="bandstr">  -2491.40503245 </i>
    <i name="atom">   7788.62438962 </i>
    <i name="e_fr_energy">   -453.50183836 </i>
    <i name="e_wo_entrp">   -453.50133784 </i>
    <i name="e_0_energy">   -453.50158810 </i>
   </energy>
  </scstep>
  <scstep>
   <time name="diag">    0.63    0.63</time>
   <time name="diis">    2.97    2.98</time>
   <time name="orth">    0.03    0.03</time>
   <time name="total">    4.14    4.14</time>
   <energy>
    <i name="e_fr_energy">   -454.29537271 </i>
    <i name="e_wo_entrp">   -454.29527100 </i>
    <i name="e_0_energy">   -454.29532185 </i>
   </energy>
  </scstep>
  <scstep>
   <time name="diag">    0.63    0.63</time>
   <time name="diis">    3.26    3.27</time>
   <time name="orth">    0.03    0.03</time>
   <time name="total">    4.43    4.43</time>
   <energy>
    <i name="e_fr_energy">   -454.33644197 </i>
    <i name="e_wo_entrp">   -454.33631920 </i>
    <i name="e_0_energy">   -454.33638058 </i>
   </energy>
  </scstep>
  <scstep>
   <time name="diag">    0.63    0.63</time>
   <time name="diis">    3.10    3.10</time>
   <time name="orth">    0.03    0.03</time>
   <time name="total">    4.27    4.28</time>
   <energy>
    <i name="e_fr_energy">   -454.33966360 </i>
    <i name="e_wo_entrp">   -454.33955367 </i>
    <i name="e_0_energy">   -454.33960864 </i>
   </energy>
  </scstep>
  <scstep>
   <time name="diag">    0.63    0.63</time>
   <time name="diis">    3.24    3.24</time>
   <time name="orth">    0.03    0.03</time>
   <time name="total">    4.40    4.40</time>
   <energy>
    <i name="e_fr_energy">   -454.33981247 </i>
    <i name="e_wo_entrp">   -454.33970099 </i>
    <i name="e_0_energy">   -454.33975673 </i>
   </energy>
  </scstep>
  <scstep>
   <time name="diag">    0.63    0.63</time>
   <time name="diis">    3.24    3.24</time>
   <time name="orth">    0.03    0.03</time>
   <time name="total">    4.40    4.40</time>
   <energy>
    <i name="e_fr_energy">   -454.33984712 </i>
    <i name="e_wo_entrp">   -454.33973404 </i>
    <i name="e_0_energy">   -454.33979058 </i>
   </energy>
  </scstep>
  <scstep>
   <time name="diag">    0.63    0.63</time>
   <time name="diis">    2.23    2.23</time>
   <time name="orth">    0.03    0.03</time>
   <time name="total">    3.08    3.08</time>
   <energy>
    <i name="alphaZ">     82.54348252 </i>
    <i name="ewald">  34516.56348528 </i>
    <i name="hartreedc"> -41034.94371508 </i>
    <i name="XCdc">    721.38430306 </i>
    <i name="pawpsdc">  22777.32631878 </i>
    <i name="pawaedc"> -22813.65819427 </i>
    <i name="eentropy">     -0.00011388 </i>
    <i name="bandstr">  -2492.17981058 </i>
    <i name="atom">   7788.62438962 </i>
    <i name="e_fr_energy">   -454.33985455 </i>
    <i name="e_wo_entrp">   -454.33974068 </i>
    <i name="e_0_energy">   -454.33979761 </i>
   </energy>
  </scstep>
  <structure>
   <crystal>
    <varray name="basis" >
     <v>      12.30000019       0.00000000       0.00000000 </v>
     <v>       6.15000080      10.65211222       0.00000000 </v>
     <v>       0.00000000       0.00000000      20.00000000 </v>
    </varray>
    <i name="volume">   2620.41964732 </i>
    <varray name="rec_basis" >
     <v>       0.08130081      -0.04693905       0.00000000 </v>
     <v>       0.00000000       0.09387809       0.00000000 </v>
     <v>       0.00000000       0.00000000       0.05000000 </v>
    </varray>
   </crystal>
   <varray name="positions" >
    <v>       0.00000000       0.00000000       0.41799748 </v>
    <v>       0.20000000       0.00000000       0.41799748 </v>
    <v>       0.40000000       0.00000000       0.41799748 </v>
    <v>       0.60000000       0.00000000       0.41799748 </v>
    <v>       0.80000000       0.00000000       0.41799748 </v>
    <v>       0.00000000       0.20000000       0.41799748 </v>
    <v>       0.20000000       0.20000000       0.41849748 </v>
    <v>       0.40000000       0.20000000       0.41799748 </v>
    <v>       0.60000000       0.20000000       0.41799748 </v>
    <v>       0.80000000       0.20000000       0.41799748 </v>
    <v>       0.00000000       0.40000000       0.41799748 </v>
    <v>       0.20000000       0.40000000       0.41799748 </v>
    <v>       0.40000000       0.40000000       0.41799748 </v>
    <v>       0.60000000       0.40000000       0.41799748 </v>
    <v>       0.80000000       0.40000000       0.41799748 </v>
    <v>       0.00000000       0.60000000       0.41799748 </v>
    <v>       0.20000000       0.60000000       0.41799748 </v>
    <v>       0.40000000       0.60000000       0.41799748 </v>
    <v>       0.60000000       0.60000000       0.41799748 </v>
    <v>       0.80000000       0.60000000       0.41799748 </v>
    <v>       0.00000000       0.80000000       0.41799748 </v>
    <v>       0.20000000       0.80000000       0.41799748 </v>
    <v>       0.40000000       0.80000000       0.41799748 </v>
    <v>       0.60000000       0.80000000       0.41799748 </v>
    <v>       0.80000000       0.80000000       0.41799748 </v>
    <v>       0.06666667       0.06666660       0.41800609 </v>
    <v>       0.26666667       0.06666660       0.41800609 </v>
    <v>       0.46666667       0.06666660       0.41800609 </v>
    <v>       0.66666667       0.06666660       0.41800609 </v>
    <v>       0.86666667       0.06666660       0.41800609 </v>
    <v>       0.06666667       0.26666660       0.41800609 </v>
    <v>       0.26666667       0.26666660       0.41800609 </v>
    <v>       0.46666667       0.26666660       0.41800609 </v>
    <v>       0.66666667       0.26666660       0.41800609 </v>
    <v>       0.86666667       0.26666660       0.41800609 </v>
    <v>       0.06666667       0.46666660       0.41800609 </v>
    <v>       0.26666667       0.46666660       0.41800609 </v>
    <v>       0.46666667       0.46666660       0.41800609 </v>
    <v>       0.66666667       0.46666660       0.41800609 </v>
    <v>       0.86666667       0.46666660       0.41800609 </v>
    <v>       0.06666667       0.66666660       0.41800609 </v>
    <v>       0.26666667       0.66666660       0.41800609 </v>
    <v>       0.46666667       0.66666660       0.41800609 </v>
    <v>       0.66666667       0.66666660       0.41800609 </v>
    <v>       0.86666667       0.66666660       0.41800609 </v>
    <v>       0.06666667       0.86666660       0.41800609 </v>
    <v>       0.26666667       0.86666660       0.41800609 </v>
    <v>       0.46666667       0.86666660       0.41800609 </v>
    <v>       0.66666667       0.86666660       0.41800609 </v>
    <v>       0.86666667       0.86666660       0.41800609 </v>
    <v>       0.40000000       0.40000000       0.46800609 </v>
   </varray>
  </structure>
  <varray name="forces" >
   <v>      -0.04766008      -0.02751656       0.01020688 </v>
   <v>       0.04756795      -0.02756781       0.00433180 </v>
   <v>      -0.15891137       0.01398066      -0.03091530 </v>
   <v>      -0.00011305      -0.20773877      -0.02621084 </v>
   <v>       0.15916353       0.01427781      -0.02623642 </v>
   <v>      -0.00009045       0.05497896       0.00433180 </v>
   <v>       0.42891838       0.24763612      -0.14024030 </v>
   <v>       0.09541794      -0.20563496       0.15915561 </v>
   <v>      -0.09392615      -0.20518137       0.16556112 </v>
   <v>      -0.42887717       0.24769403      -0.00034090 </v>
   <v>      -0.06734809      -0.14461160      -0.03091530 </v>
   <v>      -0.13037612       0.18545185       0.15915561 </v>
   <v>       0.00067871       0.00039185     -48.16002376 </v>
   <v>       0.12999016       0.18468263       0.16504908 </v>
   <v>       0.06698126      -0.14501233      -0.02523616 </v>
   <v>      -0.17996357       0.10377149      -0.02621084 </v>
   <v>      -0.22465535       0.02124826       0.16556112 </v>
   <v>       0.22493493       0.02023345       0.16504908 </v>
   <v>       0.17989165       0.10386048      -0.02717688 </v>
   <v>      -0.00025304      -0.01306442       0.01774416 </v>
   <v>       0.09194672       0.13070075      -0.02623642 </v>
   <v>       0.00007070      -0.49526554      -0.00034090 </v>
   <v>      -0.09209372       0.13051364      -0.02523616 </v>
   <v>      -0.01144064       0.00631307       0.01774416 </v>
   <v>       0.01113924       0.00643124       0.01773539 </v>
   <v>       0.00001889       0.00001091      -0.00210444 </v>
   <v>       0.09733863      -0.21647414       0.07053857 </v>
   <v>       0.19393201       0.25054006       0.26080071 </v>
   <v>      -0.19421787       0.25047394       0.25679634 </v>
   <v>      -0.09715715      -0.21728193       0.01005900 </v>
   <v>      -0.13880278       0.19253480       0.07053857 </v>
   <v>      -0.44186014      -0.25510805      -0.29313962 </v>
   <v>      -0.00122267      -5.07545751      -4.35246498 </v>
   <v>       0.44165038      -0.25517038      -0.35483353 </v>
   <v>       0.13950451       0.19277630       0.00510888 </v>
   <v>       0.31394007       0.04268000       0.26080071 </v>
   <v>      -4.39608630       2.53667018      -4.35246498 </v>
   <v>       4.39604169       2.53805566      -4.34914968 </v>
   <v>      -0.31391239       0.04305260       0.25766035 </v>
   <v>       0.00010946       0.08226159      -0.02719294 </v>
   <v>       0.11980784      -0.29343459       0.25679634 </v>
   <v>      -0.00015880       0.51006563      -0.35483353 </v>
   <v>      -0.11967157      -0.29338240       0.25766035 </v>
   <v>      -0.08211567      -0.04740950      -0.02595374 </v>
   <v>       0.08219846      -0.04739039      -0.02648271 </v>
   <v>      -0.23675025       0.02450042       0.01005900 </v>
   <v>       0.23670143       0.02442629       0.00510888 </v>
   <v>       0.07129536      -0.04103601      -0.02719294 </v>
   <v>       0.00005796       0.09488115      -0.02648271 </v>
   <v>      -0.07103195      -0.04101031      -0.02198682 </v>
   <v>      -0.00060152      -0.00034729      59.98604932 </v>
  </varray>
  <varray name="stress" >
   <v>       9.50645540      -0.00187368       0.00214069 </v>
   <v>      -0.00187368       9.50861894       0.00123593 </v>
   <v>       0.00214069       0.00123593      31.90848944 </v>
  </varray>
  <energy>
   <i name="e_fr_energy">   -454.33985455 </i>
   <i name="e_wo_entrp">   -454.33979761 </i>
   <i name="e_0_energy">     -0.00011388 </i>
  </energy>
  <time name="totalsc">   33.93   33.97</time>
  <eigenvalues>
   <array>
    <dimension dim="1">band</dimension>
    <dimension dim="2">kpoint</dimension>
    <dimension dim="3">spin</dimension>
    <field>eigene</field>
    <field>occ</field>
    <set>
     <set comment="spin 1">
      <set comment="kpoint 1">
       <r>  -31.7393    1.0000 </r>
       <r>  -22.2709    1.0000 </r>
       <r>  -21.5027    1.0000 </r>
       <r>  -21.5027    1.0000 </r>
       <r>  -21.3943    1.0000 </r>
       <r>  -21.3942    1.0000 </r>
       <r>  -21.3938    1.0000 </r>
       <r>  -20.8740    1.0000 </r>
       <r>  -19.8763    1.0000 </r>
       <r>  -19.8763    1.0000 </r>
       <r>  -19.5490    1.0000 </r>
       <r>  -19.5489    1.0000 </r>
       <r>  -19.5387    1.0000 </r>
       <r>  -19.1912    1.0000 </r>
       <r>  -18.9008    1.0000 </r>
       <r>  -18.9008    1.0000 </r>
       <r>  -18.6434    1.0000 </r>
       <r>  -18.6428    1.0000 </r>
       <r>  -18.6428    1.0000 </r>
       <r>  -17.8839    1.0000 </r>
       <r>  -17.0211    1.0000 </r>
       <r>  -17.0210    1.0000 </r>
       <r>  -16.4775    1.0000 </r>
       <r>  -16.4580    1.0000 </r>
       <r>  -16.4580    1.0000 </r>
       <r>  -16.0493    1.0000 </r>
       <r>  -15.9964    1.0000 </r>
       <r>  -15.9964    1.0000 </r>
       <r>  -15.4972    1.0000 </r>
       <r>  -15.4972    1.0000 </r>
       <r>  -15.4927    1.0000 </r>
       <r>  -15.0893    1.0000 </r>
       <r>  -14.6291    1.0000 </r>
       <r>  -14.6290    1.0000 </r>
       <r>  -14.1495    1.0000 </r>
       <r>  -14.1495    1.0000 </r>
       <r>  -14.1429    1.0000 </r>
       <r>  -13.9644    1.0000 </r>
       <r>  -12.9909    1.0000 </r>
       <r>  -12.9907    1.0000 </r>
       <r>  -12.0309    1.0000 </r>
       <r>  -11.7646    1.0000 </r>
       <r>  -11.7645    1.0000 </r>
       <r>  -11.7614    1.0000 </r>
       <r>  -11.6901    1.0000 </r>
       <r>  -11.6900    1.0000 </r>
       <r>  -11.6514    1.0000 </r>
       <r>  -11.6495    1.0000 </r>
       <r>  -11.6495    1.0000 </r>
       <r>  -11.6485    1.0000 </r>
       <r>  -10.8016    1.0000 </r>
       <r>  -10.8016    1.0000 </r>
       <r>  -10.4283    1.0000 </r>
       <r>  -10.3344    1.0000 </r>
       <r>  -10.2885    1.0000 </r>
       <r>  -10.2885    1.0000 </r>
       <r>  -10.2703    1.0000 </r>
       <r>  -10.0770    1.0000 </r>
       <r>   -9.6854    1.0000 </r>
       <r>   -9.6853    1.0000 </r>
       <r>   -9.3258    1.0000 </r>
       <r>   -9.3255    1.0000 </r>
       <r>   -9.3003    1.0000 </r>
       <r>   -9.2792    1.0000 </r>
       <r>   -9.2788    1.0000 </r>
       <r>   -9.0456    1.0000 </r>
       <r>   -9.0045    1.0000 </r>
       <r>   -9.0044    1.0000 </r>
       <r>   -8.9484    1.0000 </r>
       <r>   -8.9415    1.0000 </r>
       <r>   -8.9401    1.0000 </r>
       <r>   -8.9401    1.0000 </r>
       <r>   -8.9187    1.0000 </r>
       <r>   -8.9187    1.0000 </r>
       <r>   -8.8932    1.0000 </r>
       <r>   -8.4349    1.0000 </r>
       <r>   -7.8014    1.0000 </r>
       <r>   -7.7998    1.0000 </r>
       <r>   -7.3267    1.0000 </r>
       <r>   -7.3242    1.0000 </r>
       <r>   -7.3097    1.0000 </r>
       <r>   -7.2998    1.0000 </r>
       <r>   -7.2998    1.0000 </r>
       <r>   -7.2984    1.0000 </r>
       <r>   -7.1607    1.0000 </r>
       <r>   -7.1604    1.0000 </r>
       <r>   -7.1548    1.0000 </r>
       <r>   -6.7514    1.0000 </r>
       <r>   -6.5076    1.0000 </r>
       <r>   -6.5058    1.0000 </r>
       <r>   -6.2668    1.0000 </r>
       <r>   -6.2464    1.0000 </r>
       <r>   -6.2463    1.0000 </r>
       <r>   -5.9237    1.0000 </r>
       <r>   -5.9231    1.0000 </r>
       <r>   -5.1955    1.0000 </r>
       <r>   -4.7630    1.0000 </r>
       <r>   -4.7628    1.0000 </r>
       <r>   -4.2704    1.0000 </r>
       <r>   -4.2663    1.0000 </r>
       <r>   -4.2663    1.0000 </r>
       <r>   -3.2144    1.0000 </r>
       <r>   -3.2143    1.0000 </r>
       <r>   -2.9159    0.0021 </r>
       <r>   -1.4611    0.0000 </r>
       <r>   -1.4570    0.0000 </r>
       <r>   -1.4569    0.0000 </r>
       <r>   -0.9911    0.0000 </r>
       <r>   -0.9910    0.0000 </r>
       <r>   -0.5426    0.0000 </r>
       <r>    0.4167    0.0000 </r>
       <r>    0.4218    0.0000 </r>
       <r>    0.4219    0.0000 </r>
       <r>    0.5623    0.0000 </r>
       <r>    0.8433    0.0000 </r>
       <r>    0.8438    0.0000 </r>
       <r>    1.2923    0.0000 </r>
       <r>    1.3400    0.0000 </r>
       <r>    1.6774    0.0000 </r>
       <r>    1.8025    0.0000 </r>
       <r>    1.8025    0.0000 </r>
       <r>    1.8038    0.0000 </r>
       <r>    1.8269    0.0000 </r>
       <r>    1.8277    0.0000 </r>
       <r>    2.0318    0.0000 </r>
       <r>    2.1769    0.0000 </r>
       <r>    2.1796    0.0000 </r>
       <r>    2.1796    0.0000 </r>
       <r>    2.3456    0.0000 </r>
       <r>    2.3474    0.0000 </r>
       <r>    2.6215    0.0000 </r>
       <r>    2.6420    0.0000 </r>
      </set>
      <set comment="kpoint 2">
       <r>  -31.7394    1.0000 </r>
       <r>  -22.1888    1.0000 </r>
       <r>  -21.8691    1.0000 </r>
       <r>  -21.6610    1.0000 </r>
       <r>  -21.4543    1.0000 </r>
       <r>  -21.0345    1.0000 </r>
       <r>  -20.8969    1.0000 </r>
       <r>  -20.7272    1.0000 </r>
       <r>  -20.4199    1.0000 </r>
       <r>  -20.1620    1.0000 </r>
       <r>  -19.7867    1.0000 </r>
       <r>  -19.6988    1.0000 </r>
       <r>  -19.3262    1.0000 </r>
       <r>  -19.2427    1.0000 </r>
       <r>  -19.0614    1.0000 </r>
       <r>  -18.5925    1.0000 </r>
       <r>  -18.4577    1.0000 </r>
       <r>  -18.1211    1.0000 </r>
       <r>  -18.0627    1.0000 </r>
       <r>  -17.5907    1.0000 </r>
       <r>  -17.4976    1.0000 </r>
       <r>  -17.3006    1.0000 </r>
       <r>  -17.2764    1.0000 </r>
       <r>  -16.8512    1.0000 </r>
       <r>  -16.6581    1.0000 </r>
       <r>  -16.1759    1.0000 </r>
       <r>  -15.9776    1.0000 </r>
       <r>  -15.8474    1.0000 </r>
       <r>  -15.2981    1.0000 </r>
       <r>  -15.1695    1.0000 </r>
       <r>  -15.1340    1.0000 </r>
       <r>  -14.8846    1.0000 </r>
       <r>  -14.7816    1.0000 </r>
       <r>  -14.4777    1.0000 </r>
       <r>  -14.4558    1.0000 </r>
       <r>  -13.7669    1.0000 </r>
       <r>  -13.7598    1.0000 </r>
       <r>  -13.1958    1.0000 </r>
       <r>  -13.0891    1.0000 </r>
       <r>  -12.9339    1.0000 </r>
       <r>  -12.9042    1.0000 </r>
       <r>  -12.5850    1.0000 </r>
       <r>  -12.5498    1.0000 </r>
       <r>  -12.3898    1.0000 </r>
       <r>  -12.0218    1.0000 </r>
       <r>  -11.6630    1.0000 </r>
       <r>  -11.4471    1.0000 </r>
       <r>  -11.2960    1.0000 </r>
       <r>  -11.1215    1.0000 </r>
       <r>  -10.9141    1.0000 </r>
       <r>  -10.8499    1.0000 </r>
       <r>  -10.5840    1.0000 </r>
       <r>  -10.5324    1.0000 </r>
       <r>  -10.2851    1.0000 </r>
       <r>  -10.2366    1.0000 </r>
       <r>  -10.1610    1.0000 </r>
       <r>  -10.0491    1.0000 </r>
       <r>   -9.8532    1.0000 </r>
       <r>   -9.8200    1.0000 </r>
       <r>   -9.6540    1.0000 </r>
       <r>   -9.6070    1.0000 </r>
       <r>   -9.5600    1.0000 </r>
       <r>   -9.5269    1.0000 </r>
       <r>   -9.3706    1.0000 </r>
       <r>   -9.3397    1.0000 </r>
       <r>   -9.2597    1.0000 </r>
       <r>   -9.1754    1.0000 </r>
       <r>   -9.0992    1.0000 </r>
       <r>   -9.0824    1.0000 </r>
       <r>   -8.8648    1.0000 </r>
       <r>   -8.7127    1.0000 </r>
       <r>   -8.6643    1.0000 </r>
       <r>   -8.5037    1.0000 </r>
       <r>   -8.4024    1.0000 </r>
       <r>   -8.2879    1.0000 </r>
       <r>   -8.1331    1.0000 </r>
       <r>   -8.0950    1.0000 </r>
       <r>   -8.0659    1.0000 </r>
       <r>   -7.9713    1.0000 </r>
       <r>   -7.8069    1.0000 </r>
       <r>   -7.6201    1.0000 </r>
       <r>   -7.3596    1.0000 </r>
       <r>   -7.3346    1.0000 </r>
       <r>   -7.2666    1.0000 </r>
       <r>   -7.1967    1.0000 </r>
       <r>   -6.9200    1.0000 </r>
       <r>   -6.8724    1.0000 </r>
       <r>   -6.6947    1.0000 </r>
       <r>   -6.5904    1.0000 </r>
       <r>   -6.3496    1.0000 </r>
       <r>   -6.1855    1.0000 </r>
       <r>   -6.0730    1.0000 </r>
       <r>   -5.9209    1.0000 </r>
       <r>   -5.7388    1.0000 </r>
       <r>   -5.6404    1.0000 </r>
       <r>   -5.3224    1.0000 </r>
       <r>   -5.1146    1.0000 </r>
       <r>   -4.9699    1.0000 </r>
       <r>   -4.9225    1.0000 </r>
       <r>   -4.2697    1.0000 </r>
       <r>   -4.1684    1.0000 </r>
       <r>   -3.3362    1.0000 </r>
       <r>   -3.1366    0.9996 </r>
       <r>   -2.8036    0.0000 </r>
       <r>   -1.5911    0.0000 </r>
       <r>   -1.4235    0.0000 </r>
       <r>   -0.8399    0.0000 </r>
       <r>   -0.8191    0.0000 </r>
       <r>   -0.7061    0.0000 </r>
       <r>   -0.6677    0.0000 </r>
       <r>   -0.1284    0.0000 </r>
       <r>   -0.0061    0.0000 </r>
       <r>    0.2931    0.0000 </r>
       <r>    0.7044    0.0000 </r>
       <r>    0.7274    0.0000 </r>
       <r>    1.1017    0.0000 </r>
       <r>    1.1730    0.0000 </r>
       <r>    1.3649    0.0000 </r>
       <r>    1.4630    0.0000 </r>
       <r>    1.5375    0.0000 </r>
       <r>    1.5706    0.0000 </r>
       <r>    1.6373    0.0000 </r>
       <r>    1.8269    0.0000 </r>
       <r>    1.9120    0.0000 </r>
       <r>    2.0394    0.0000 </r>
       <r>    2.2215    0.0000 </r>
       <r>    2.2679    0.0000 </r>
       <r>    2.3287    0.0000 </r>
       <r>    2.3400    0.0000 </r>
       <r>    2.3957    0.0000 </r>
       <r>    2.4577    0.0000 </r>
       <r>    2.7977    0.0000 </r>
      </set>
      <set comment="kpoint 3">
       <r>  -31.7394    1.0000 </r>
       <r>  -22.1888    1.0000 </r>
       <r>  -21.8691    1.0000 </r>
       <r>  -21.6610    1.0000 </r>
       <r>  -21.4543    1.0000 </r>
       <r>  -21.0344    1.0000 </r>
       <r>  -20.8970    1.0000 </r>
       <r>  -20.7273    1.0000 </r>
       <r>  -20.4198    1.0000 </r>
       <r>  -20.1620    1.0000 </r>
       <r>  -19.7867    1.0000 </r>
       <r>  -19.6988    1.0000 </r>
       <r>  -19.3261    1.0000 </r>
       <r>  -19.2427    1.0000 </r>
       <r>  -19.0615    1.0000 </r>
       <r>  -18.5925    1.0000 </r>
       <r>  -18.4577    1.0000 </r>
       <r>  -18.1211    1.0000 </r>
       <r>  -18.0627    1.0000 </r>
       <r>  -17.5907    1.0000 </r>
       <r>  -17.4975    1.0000 </r>
       <r>  -17.3006    1.0000 </r>
       <r>  -17.2764    1.0000 </r>
       <r>  -16.8512    1.0000 </r>
       <r>  -16.6582    1.0000 </r>
       <r>  -16.1759    1.0000 </r>
       <r>  -15.9777    1.0000 </r>
       <r>  -15.8474    1.0000 </r>
       <r>  -15.2981    1.0000 </r>
       <r>  -15.1695    1.0000 </r>
       <r>  -15.1340    1.0000 </r>
       <r>  -14.8846    1.0000 </r>
       <r>  -14.7816    1.0000 </r>
       <r>  -14.4778    1.0000 </r>
       <r>  -14.4558    1.0000 </r>
       <r>  -13.7669    1.0000 </r>
       <r>  -13.7597    1.0000 </r>
       <r>  -13.1959    1.0000 </r>
       <r>  -13.0891    1.0000 </r>
       <r>  -12.9339    1.0000 </r>
       <r>  -12.9042    1.0000 </r>
       <r>  -12.5850    1.0000 </r>
       <r>  -12.5497    1.0000 </r>
       <r>  -12.3898    1.0000 </r>
       <r>  -12.0218    1.0000 </r>
       <r>  -11.6632    1.0000 </r>
       <r>  -11.4472    1.0000 </r>
       <r>  -11.2959    1.0000 </r>
       <r>  -11.1216    1.0000 </r>
       <r>  -10.9141    1.0000 </r>
       <r>  -10.8498    1.0000 </r>
       <r>  -10.5840    1.0000 </r>
       <r>  -10.5324    1.0000 </r>
       <r>  -10.2849    1.0000 </r>
       <r>  -10.2368    1.0000 </r>
       <r>  -10.1610    1.0000 </r>
       <r>  -10.0486    1.0000 </r>
       <r>   -9.8537    1.0000 </r>
       <r>   -9.8201    1.0000 </r>
       <r>   -9.6539    1.0000 </r>
       <r>   -9.6073    1.0000 </r>
       <r>   -9.5604    1.0000 </r>
       <r>   -9.5273    1.0000 </r>
       <r>   -9.3700    1.0000 </r>
       <r>   -9.3406    1.0000 </r>
       <r>   -9.2582    1.0000 </r>
       <r>   -9.1754    1.0000 </r>
       <r>   -9.0995    1.0000 </r>
       <r>   -9.0818    1.0000 </r>
       <r>   -8.8649    1.0000 </r>
       <r>   -8.7121    1.0000 </r>
       <r>   -8.6649    1.0000 </r>
       <r>   -8.5029    1.0000 </r>
       <r>   -8.4024    1.0000 </r>
       <r>   -8.2880    1.0000 </r>
       <r>   -8.1343    1.0000 </r>
       <r>   -8.0943    1.0000 </r>
       <r>   -8.0644    1.0000 </r>
       <r>   -7.9712    1.0000 </r>
       <r>   -7.8075    1.0000 </r>
       <r>   -7.6198    1.0000 </r>
       <r>   -7.3618    1.0000 </r>
       <r>   -7.3365    1.0000 </r>
       <r>   -7.2662    1.0000 </r>
       <r>   -7.1965    1.0000 </r>
       <r>   -6.9201    1.0000 </r>
       <r>   -6.8740    1.0000 </r>
       <r>   -6.6913    1.0000 </r>
       <r>   -6.5891    1.0000 </r>
       <r>   -6.3501    1.0000 </r>
       <r>   -6.1838    1.0000 </r>
       <r>   -6.0743    1.0000 </r>
       <r>   -5.9213    1.0000 </r>
       <r>   -5.7396    1.0000 </r>
       <r>   -5.6400    1.0000 </r>
       <r>   -5.3224    1.0000 </r>
       <r>   -5.1146    1.0000 </r>
       <r>   -4.9700    1.0000 </r>
       <r>   -4.9225    1.0000 </r>
       <r>   -4.2696    1.0000 </r>
       <r>   -4.1684    1.0000 </r>
       <r>   -3.3363    1.0000 </r>
       <r>   -3.1366    0.9996 </r>
       <r>   -2.8037    0.0000 </r>
       <r>   -1.5912    0.0000 </r>
       <r>   -1.4234    0.0000 </r>
       <r>   -0.8400    0.0000 </r>
       <r>   -0.8190    0.0000 </r>
       <r>   -0.7060    0.0000 </r>
       <r>   -0.6677    0.0000 </r>
       <r>   -0.1286    0.0000 </r>
       <r>   -0.0058    0.0000 </r>
       <r>    0.2933    0.0000 </r>
       <r>    0.7044    0.0000 </r>
       <r>    0.7273    0.0000 </r>
       <r>    1.1002    0.0000 </r>
       <r>    1.1764    0.0000 </r>
       <r>    1.3665    0.0000 </r>
       <r>    1.4646    0.0000 </r>
       <r>    1.5636    0.0000 </r>
       <r>    1.5757    0.0000 </r>
       <r>    1.7497    0.0000 </r>
       <r>    1.8281    0.0000 </r>
       <r>    2.1786    0.0000 </r>
       <r>    2.3360    0.0000 </r>
       <r>    2.3977    0.0000 </r>
       <r>    2.6147    0.0000 </r>
       <r>    2.7873    0.0000 </r>
       <r>    2.8479    0.0000 </r>
       <r>    3.2036    0.0000 </r>
       <r>    3.5951    0.0000 </r>
       <r>    4.1802    0.0000 </r>
      </set>
      <set comment="kpoint 4">
       <r>  -31.7395    1.0000 </r>
       <r>  -22.0803    1.0000 </r>
       <r>  -22.0074    1.0000 </r>
       <r>  -21.8014    1.0000 </r>
       <r>  -21.1718    1.0000 </r>
       <r>  -21.1503    1.0000 </r>
       <r>  -20.8672    1.0000 </r>
       <r>  -20.4128    1.0000 </r>
       <r>  -20.3386    1.0000 </r>
       <r>  -20.1718    1.0000 </r>
       <r>  -20.1502    1.0000 </r>
       <r>  -20.1428    1.0000 </r>
       <r>  -19.5666    1.0000 </r>
       <r>  -18.8260    1.0000 </r>
       <r>  -18.6743    1.0000 </r>
       <r>  -18.3723    1.0000 </r>
       <r>  -18.3487    1.0000 </r>
       <r>  -18.3362    1.0000 </r>
       <r>  -17.9298    1.0000 </r>
       <r>  -17.8012    1.0000 </r>
       <r>  -17.6013    1.0000 </r>
       <r>  -17.2614    1.0000 </r>
       <r>  -17.1529    1.0000 </r>
       <r>  -17.1204    1.0000 </r>
       <r>  -16.5428    1.0000 </r>
       <r>  -16.4374    1.0000 </r>
       <r>  -16.2841    1.0000 </r>
       <r>  -15.8083    1.0000 </r>
       <r>  -15.6286    1.0000 </r>
       <r>  -15.1752    1.0000 </r>
       <r>  -14.9692    1.0000 </r>
       <r>  -14.6523    1.0000 </r>
       <r>  -13.9599    1.0000 </r>
       <r>  -13.9391    1.0000 </r>
       <r>  -13.9244    1.0000 </r>
       <r>  -13.8734    1.0000 </r>
       <r>  -13.8636    1.0000 </r>
       <r>  -13.7918    1.0000 </r>
       <r>  -13.6742    1.0000 </r>
       <r>  -13.4947    1.0000 </r>
       <r>  -13.0373    1.0000 </r>
       <r>  -12.4744    1.0000 </r>
       <r>  -12.2537    1.0000 </r>
       <r>  -12.0713    1.0000 </r>
       <r>  -11.8232    1.0000 </r>
       <r>  -11.7731    1.0000 </r>
       <r>  -11.5630    1.0000 </r>
       <r>  -11.5454    1.0000 </r>
       <r>  -11.5225    1.0000 </r>
       <r>  -10.9289    1.0000 </r>
       <r>  -10.8175    1.0000 </r>
       <r>  -10.5299    1.0000 </r>
       <r>  -10.2059    1.0000 </r>
       <r>  -10.2036    1.0000 </r>
       <r>  -10.1939    1.0000 </r>
       <r>  -10.0948    1.0000 </r>
       <r>  -10.0520    1.0000 </r>
       <r>  -10.0218    1.0000 </r>
       <r>   -9.9025    1.0000 </r>
       <r>   -9.7514    1.0000 </r>
       <r>   -9.7479    1.0000 </r>
       <r>   -9.5642    1.0000 </r>
       <r>   -9.4407    1.0000 </r>
       <r>   -9.4072    1.0000 </r>
       <r>   -9.1990    1.0000 </r>
       <r>   -9.0463    1.0000 </r>
       <r>   -9.0322    1.0000 </r>
       <r>   -8.9016    1.0000 </r>
       <r>   -8.8856    1.0000 </r>
       <r>   -8.6862    1.0000 </r>
       <r>   -8.6369    1.0000 </r>
       <r>   -8.6351    1.0000 </r>
       <r>   -8.6238    1.0000 </r>
       <r>   -8.5831    1.0000 </r>
       <r>   -8.3742    1.0000 </r>
       <r>   -8.2518    1.0000 </r>
       <r>   -8.1646    1.0000 </r>
       <r>   -8.0343    1.0000 </r>
       <r>   -7.9835    1.0000 </r>
       <r>   -7.8795    1.0000 </r>
       <r>   -7.8580    1.0000 </r>
       <r>   -7.8548    1.0000 </r>
       <r>   -7.2250    1.0000 </r>
       <r>   -7.1853    1.0000 </r>
       <r>   -7.1297    1.0000 </r>
       <r>   -6.8829    1.0000 </r>
       <r>   -6.7210    1.0000 </r>
       <r>   -6.6127    1.0000 </r>
       <r>   -6.4600    1.0000 </r>
       <r>   -6.2675    1.0000 </r>
       <r>   -6.1024    1.0000 </r>
       <r>   -5.9164    1.0000 </r>
       <r>   -5.9111    1.0000 </r>
       <r>   -5.8976    1.0000 </r>
       <r>   -5.4516    1.0000 </r>
       <r>   -5.4252    1.0000 </r>
       <r>   -5.1219    1.0000 </r>
       <r>   -5.0140    1.0000 </r>
       <r>   -4.9801    1.0000 </r>
       <r>   -4.9577    1.0000 </r>
       <r>   -3.7322    1.0000 </r>
       <r>   -3.4581    1.0000 </r>
       <r>   -3.2797    1.0000 </r>
       <r>   -2.3871    0.0000 </r>
       <r>   -2.2239    0.0000 </r>
       <r>   -0.9285    0.0000 </r>
       <r>   -0.8821    0.0000 </r>
       <r>   -0.8677    0.0000 </r>
       <r>   -0.5384    0.0000 </r>
       <r>   -0.2636    0.0000 </r>
       <r>   -0.2109    0.0000 </r>
       <r>    0.2520    0.0000 </r>
       <r>    0.2582    0.0000 </r>
       <r>    0.2606    0.0000 </r>
       <r>    0.5987    0.0000 </r>
       <r>    0.7939    0.0000 </r>
       <r>    0.9467    0.0000 </r>
       <r>    0.9740    0.0000 </r>
       <r>    1.0622    0.0000 </r>
       <r>    1.7329    0.0000 </r>
       <r>    1.7452    0.0000 </r>
       <r>    1.7675    0.0000 </r>
       <r>    1.8267    0.0000 </r>
       <r>    2.1154    0.0000 </r>
       <r>    2.1197    0.0000 </r>
       <r>    2.1230    0.0000 </r>
       <r>    2.2467    0.0000 </r>
       <r>    2.2481    0.0000 </r>
       <r>    2.3619    0.0000 </r>
       <r>    2.9996    0.0000 </r>
       <r>    3.0122    0.0000 </r>
       <r>    3.0363    0.0000 </r>
      </set>
     </set>
    </set>
   </array>
  </eigenvalues>
  <separator name="orbital magnetization" >
   <v name="MAGDIPOLOUT">      0.00000000      0.00000000      0.00000000</v>
  </separator>
  <dos>
   <i name="efermi">     -3.01693574 </i>
   <total>
    <array>
     <dimension dim="1">gridpoints</dimension>
     <dimension dim="2">spin</dimension>
     <field>energy</field>
     <field>total</field>
     <field>integrated</field>
     <set>
      <set comment="spin 1">
       <r>   -33.5354     0.0000     0.0000 </r>
       <r>   -33.4037     0.0000     0.0000 </r>
       <r>   -33.2720     0.0000     0.0000 </r>
       <r>   -33.1403     0.0000     0.0000 </r>
       <r>   -33.0086     0.0000     0.0000 </r>
       <r>   -32.8769     0.0000     0.0000 </r>
       <r>   -32.7452     0.0000     0.0000 </r>
       <r>   -32.6135     0.0000     0.0000 </r>
       <r>   -32.4818     0.0000     0.0000 </r>
       <r>   -32.3501     0.0000     0.0000 </r>
       <r>   -32.2184     0.0000     0.0000 </r>
       <r>   -32.0867     0.0000     0.0000 </r>
       <r>   -31.9550     0.0000     0.0000 </r>
       <r>   -31.8233     0.1344     0.0177 </r>
       <r>   -31.6916    13.7150     1.8240 </r>
       <r>   -31.5599     1.3360     2.0000 </r>
       <r>   -31.4282     0.0000     2.0000 </r>
       <r>   -31.2965     0.0000     2.0000 </r>
       <r>   -31.1647     0.0000     2.0000 </r>
       <r>   -31.0330     0.0000     2.0000 </r>
       <r>   -30.9013     0.0000     2.0000 </r>
       <r>   -30.7696     0.0000     2.0000 </r>
       <r>   -30.6379     0.0000     2.0000 </r>
       <r>   -30.5062     0.0000     2.0000 </r>
       <r>   -30.3745     0.0000     2.0000 </r>
       <r>   -30.2428     0.0000     2.0000 </r>
       <r>   -30.1111     0.0000     2.0000 </r>
       <r>   -29.9794     0.0000     2.0000 </r>
       <r>   -29.8477     0.0000     2.0000 </r>
       <r>   -29.7160     0.0000     2.0000 </r>
       <r>   -29.5843     0.0000     2.0000 </r>
       <r>   -29.4526     0.0000     2.0000 </r>
       <r>   -29.3209     0.0000     2.0000 </r>
       <r>   -29.1892     0.0000     2.0000 </r>
       <r>   -29.0575     0.0000     2.0000 </r>
       <r>   -28.9258     0.0000     2.0000 </r>
       <r>   -28.7941     0.0000     2.0000 </r>
       <r>   -28.6623     0.0000     2.0000 </r>
       <r>   -28.5306     0.0000     2.0000 </r>
       <r>   -28.3989     0.0000     2.0000 </r>
       <r>   -28.2672     0.0000     2.0000 </r>
       <r>   -28.1355     0.0000     2.0000 </r>
       <r>   -28.0038     0.0000     2.0000 </r>
       <r>   -27.8721     0.0000     2.0000 </r>
       <r>   -27.7404     0.0000     2.0000 </r>
       <r>   -27.6087     0.0000     2.0000 </r>
       <r>   -27.4770     0.0000     2.0000 </r>
       <r>   -27.3453     0.0000     2.0000 </r>
       <r>   -27.2136     0.0000     2.0000 </r>
       <r>   -27.0819     0.0000     2.0000 </r>
       <r>   -26.9502     0.0000     2.0000 </r>
       <r>   -26.8185     0.0000     2.0000 </r>
       <r>   -26.6868     0.0000     2.0000 </r>
       <r>   -26.5551     0.0000     2.0000 </r>
       <r>   -26.4234     0.0000     2.0000 </r>
       <r>   -26.2916     0.0000     2.0000 </r>
       <r>   -26.1599     0.0000     2.0000 </r>
       <r>   -26.0282     0.0000     2.0000 </r>
       <r>   -25.8965     0.0000     2.0000 </r>
       <r>   -25.7648     0.0000     2.0000 </r>
       <r>   -25.6331     0.0000     2.0000 </r>
       <r>   -25.5014     0.0000     2.0000 </r>
       <r>   -25.3697     0.0000     2.0000 </r>
       <r>   -25.2380     0.0000     2.0000 </r>
       <r>   -25.1063     0.0000     2.0000 </r>
       <r>   -24.9746     0.0000     2.0000 </r>
       <r>   -24.8429     0.0000     2.0000 </r>
       <r>   -24.7112     0.0000     2.0000 </r>
       <r>   -24.5795     0.0000     2.0000 </r>
       <r>   -24.4478     0.0000     2.0000 </r>
       <r>   -24.3161     0.0000     2.0000 </r>
       <r>   -24.1844     0.0000     2.0000 </r>
       <r>   -24.0527     0.0000     2.0000 </r>
       <r>   -23.9210     0.0000     2.0000 </r>
       <r>   -23.7892     0.0000     2.0000 </r>
       <r>   -23.6575     0.0000     2.0000 </r>
       <r>   -23.5258     0.0000     2.0000 </r>
       <r>   -23.3941     0.0000     2.0000 </r>
       <r>   -23.2624     0.0000     2.0000 </r>
       <r>   -23.1307     0.0000     2.0000 </r>
       <r>   -22.9990     0.0000     2.0000 </r>
       <r>   -22.8673     0.0000     2.0000 </r>
       <r>   -22.7356     0.0000     2.0000 </r>
       <r>   -22.6039     0.0000     2.0000 </r>
       <r>   -22.4722     0.0000     2.0000 </r>
       <r>   -22.3405     0.0414     2.0055 </r>
       <r>   -22.2088     4.4750     2.5948 </r>
       <r>   -22.0771     9.1779     3.8036 </r>
       <r>   -21.9454     4.8887     4.4475 </r>
       <r>   -21.8137    10.7383     5.8618 </r>
       <r>   -21.6820     5.5389     6.5913 </r>
       <r>   -21.5503     7.6482     7.5986 </r>
       <r>   -21.4185    12.8039     9.2849 </r>
       <r>   -21.2868     5.4254     9.9995 </r>
       <r>   -21.1551     3.8095    10.5012 </r>
       <r>   -21.0234     9.2469    11.7191 </r>
       <r>   -20.8917    10.8219    13.1444 </r>
       <r>   -20.7600     9.9695    14.4574 </r>
       <r>   -20.6283     8.3119    15.5521 </r>
       <r>   -20.4966     0.2077    15.5795 </r>
       <r>   -20.3649    13.1849    17.3160 </r>
       <r>   -20.2332     3.9138    17.8315 </r>
       <r>   -20.1015    18.6283    20.2849 </r>
       <r>   -19.9698     1.2250    20.4463 </r>
       <r>   -19.8381     3.6295    20.9243 </r>
       <r>   -19.7064    13.9433    22.7607 </r>
       <r>   -19.5747     8.4643    23.8755 </r>
       <r>   -19.4430     6.0008    24.6658 </r>
       <r>   -19.3113     6.9868    25.5860 </r>
       <r>   -19.1796    13.9572    27.4243 </r>
       <r>   -19.0479     7.5712    28.4215 </r>
       <r>   -18.9161     4.6877    29.0389 </r>
       <r>   -18.7844     5.2065    29.7246 </r>
       <r>   -18.6527     5.2950    30.4220 </r>
       <r>   -18.5210    13.8197    32.2421 </r>
       <r>   -18.3893    11.4142    33.7454 </r>
       <r>   -18.2576     8.6198    34.8807 </r>
       <r>   -18.1259     4.9511    35.5328 </r>
       <r>   -17.9942    15.2076    37.5357 </r>
       <r>   -17.8625     4.7964    38.1674 </r>
       <r>   -17.7308     3.7132    38.6564 </r>
       <r>   -17.5991     5.9799    39.4440 </r>
       <r>   -17.4674    15.7244    41.5150 </r>
       <r>   -17.3357     4.1546    42.0622 </r>
       <r>   -17.2040    21.3311    44.8716 </r>
       <r>   -17.0723     6.7992    45.7671 </r>
       <r>   -16.9406     3.4750    46.2248 </r>
       <r>   -16.8089     8.9324    47.4012 </r>
       <r>   -16.6772     4.1617    47.9493 </r>
       <r>   -16.5454     8.7867    49.1066 </r>
       <r>   -16.4137     8.8923    50.2778 </r>
       <r>   -16.2820     3.0433    50.6786 </r>
       <r>   -16.1503     9.3478    51.9097 </r>
       <r>   -16.0186     5.8758    52.6836 </r>
       <r>   -15.8869    13.0060    54.3966 </r>
       <r>   -15.7552    11.9036    55.9643 </r>
       <r>   -15.6235     2.1537    56.2480 </r>
       <r>   -15.4918     4.2436    56.8069 </r>
       <r>   -15.3601     2.7117    57.1640 </r>
       <r>   -15.2284    10.2224    58.5104 </r>
       <r>   -15.0967    22.1064    61.4219 </r>
       <r>   -14.9650     4.6655    62.0364 </r>
       <r>   -14.8333    11.5197    63.5536 </r>
       <r>   -14.7016    10.3629    64.9185 </r>
       <r>   -14.5699     6.3857    65.7595 </r>
       <r>   -14.4382    15.9258    67.8570 </r>
       <r>   -14.3065     4.4602    68.4444 </r>
       <r>   -14.1748     1.1120    68.5909 </r>
       <r>   -14.0430     4.0019    69.1180 </r>
       <r>   -13.9113    10.2083    70.4624 </r>
       <r>   -13.7796    16.9445    72.6941 </r>
       <r>   -13.6479    17.5688    75.0080 </r>
       <r>   -13.5162     1.6991    75.2318 </r>
       <r>   -13.3845     2.4550    75.5551 </r>
       <r>   -13.2528     0.5445    75.6269 </r>
       <r>   -13.1211    11.2888    77.1137 </r>
       <r>   -12.9894    13.8844    78.9423 </r>
       <r>   -12.8577    20.4194    81.6316 </r>
       <r>   -12.7260     1.1099    81.7778 </r>
       <r>   -12.5943     5.0640    82.4448 </r>
       <r>   -12.4626    17.4397    84.7417 </r>
       <r>   -12.3309    10.8071    86.1650 </r>
       <r>   -12.1992     3.6016    86.6394 </r>
       <r>   -12.0675     3.2876    87.0724 </r>
       <r>   -11.9358    12.0255    88.6562 </r>
       <r>   -11.8041     3.7455    89.1495 </r>
       <r>   -11.6723    16.2283    91.2869 </r>
       <r>   -11.5406    17.5747    93.6015 </r>
       <r>   -11.4089    13.4242    95.3696 </r>
       <r>   -11.2772     8.5174    96.4914 </r>
       <r>   -11.1455     5.5344    97.2203 </r>
       <r>   -11.0138     7.6473    98.2275 </r>
       <r>   -10.8821    13.2739    99.9757 </r>
       <r>   -10.7504    16.6855   102.1733 </r>
       <r>   -10.6187     2.1183   102.4523 </r>
       <r>   -10.4870    20.5392   105.1574 </r>
       <r>   -10.3553     3.8128   105.6596 </r>
       <r>   -10.2236    24.9915   108.9511 </r>
       <r>   -10.0919    25.2169   112.2723 </r>
       <r>    -9.9602    18.1512   114.6629 </r>
       <r>    -9.8285    15.2208   116.6676 </r>
       <r>    -9.6968    17.1815   118.9305 </r>
       <r>    -9.5651    27.9537   122.6121 </r>
       <r>    -9.4334    20.4071   125.2999 </r>
       <r>    -9.3017    27.6054   128.9356 </r>
       <r>    -9.1699    23.4274   132.0212 </r>
       <r>    -9.0382    28.6709   135.7973 </r>
       <r>    -8.9065    20.3596   138.4787 </r>
       <r>    -8.7748    16.9779   140.7148 </r>
       <r>    -8.6431    23.8399   143.8547 </r>
       <r>    -8.5114    17.0290   146.0975 </r>
       <r>    -8.3797    16.6033   148.2842 </r>
       <r>    -8.2480    15.2731   150.2958 </r>
       <r>    -8.1163    16.3955   152.4552 </r>
       <r>    -7.9846    28.3754   156.1923 </r>
       <r>    -7.8529    16.1379   158.3178 </r>
       <r>    -7.7212    16.0499   160.4317 </r>
       <r>    -7.5895     8.2584   161.5193 </r>
       <r>    -7.4578     1.9951   161.7821 </r>
       <r>    -7.3261    18.3191   164.1948 </r>
       <r>    -7.1944    32.2199   168.4383 </r>
       <r>    -7.0627    15.1151   170.4291 </r>
       <r>    -6.9310     4.7524   171.0550 </r>
       <r>    -6.7992    18.9721   173.5537 </r>
       <r>    -6.6675    12.9700   175.2620 </r>
       <r>    -6.5358    15.7866   177.3411 </r>
       <r>    -6.4041     7.1204   178.2789 </r>
       <r>    -6.2724    12.6317   179.9426 </r>
       <r>    -6.1407    15.3049   181.9583 </r>
       <r>    -6.0090    13.5726   183.7459 </r>
       <r>    -5.8773    20.4660   186.4414 </r>
       <r>    -5.7456     7.7311   187.4596 </r>
       <r>    -5.6139    13.6016   189.2510 </r>
       <r>    -5.4822     3.1470   189.6655 </r>
       <r>    -5.3505     8.0107   190.7205 </r>
       <r>    -5.2188     8.4679   191.8358 </r>
       <r>    -5.0871    12.0598   193.4242 </r>
       <r>    -4.9554    18.6942   195.8863 </r>
       <r>    -4.8237    14.4796   197.7933 </r>
       <r>    -4.6920     3.1810   198.2123 </r>
       <r>    -4.5603     0.0755   198.2222 </r>
       <r>    -4.4286     0.0000   198.2222 </r>
       <r>    -4.2968     3.2755   198.6536 </r>
       <r>    -4.1651    17.3167   200.9343 </r>
       <r>    -4.0334     4.7161   201.5555 </r>
       <r>    -3.9017     0.0007   201.5556 </r>
       <r>    -3.7700     0.4799   201.6188 </r>
       <r>    -3.6383     2.8812   201.9982 </r>
       <r>    -3.5066     0.3005   202.0378 </r>
       <r>    -3.3749     4.4538   202.6244 </r>
       <r>    -3.2432    12.2908   204.2432 </r>
       <r>    -3.1115    10.9171   205.6810 </r>
       <r>    -2.9798     2.4818   206.0079 </r>
       <r>    -2.8481     2.6362   206.3551 </r>
       <r>    -2.7164     9.0461   207.5465 </r>
       <r>    -2.5847     0.0689   207.5556 </r>
       <r>    -2.4530     0.1052   207.5694 </r>
       <r>    -2.3213     3.1735   207.9874 </r>
       <r>    -2.1896     2.9102   208.3707 </r>
       <r>    -2.0579     0.5602   208.4444 </r>
       <r>    -1.9261     0.0000   208.4444 </r>
       <r>    -1.7944     0.0000   208.4444 </r>
       <r>    -1.6627     0.2166   208.4730 </r>
       <r>    -1.5310     9.5688   209.7332 </r>
       <r>    -1.3993    12.7781   211.4162 </r>
       <r>    -1.2676     2.7455   211.7778 </r>
       <r>    -1.1359     0.0001   211.7778 </r>
       <r>    -1.0042     1.2527   211.9428 </r>
       <r>    -0.8725    11.3245   213.4343 </r>
       <r>    -0.7408    22.8501   216.4438 </r>
       <r>    -0.6091    18.1691   218.8367 </r>
       <r>    -0.4774     5.2603   219.5295 </r>
       <r>    -0.3457     0.2319   219.5601 </r>
       <r>    -0.2140     4.7189   220.1816 </r>
       <r>    -0.0823    11.3066   221.6707 </r>
       <r>     0.0494    10.3449   223.0332 </r>
       <r>     0.1811     0.7661   223.1341 </r>
       <r>     0.3128    16.5700   225.3165 </r>
       <r>     0.4445     7.3222   226.2808 </r>
       <r>     0.5763     3.2320   226.7065 </r>
       <r>     0.7080    11.5222   228.2240 </r>
       <r>     0.8397    16.3770   230.3810 </r>
       <r>     0.9714     6.3305   231.2147 </r>
       <r>     1.1031    11.0439   232.6693 </r>
       <r>     1.2348    14.8173   234.6208 </r>
       <r>     1.3665     8.5266   235.7438 </r>
       <r>     1.4982    14.9784   237.7165 </r>
       <r>     1.6299    23.0248   240.7490 </r>
       <r>     1.7616    15.8152   242.8320 </r>
       <r>     1.8933    27.2131   246.4161 </r>
       <r>     2.0250     8.3372   247.5141 </r>
       <r>     2.1567    16.5364   249.6921 </r>
       <r>     2.2884    26.6106   253.1968 </r>
       <r>     2.4201    32.8401   257.5221 </r>
       <r>     2.5518     8.8413   258.6865 </r>
       <r>     2.6835     6.2514   259.5098 </r>
       <r>     2.8152     8.2546   260.5970 </r>
       <r>     2.9470     5.9404   261.3794 </r>
       <r>     3.0787     9.2397   262.5963 </r>
       <r>     3.2104     2.4777   262.9227 </r>
       <r>     3.3421     1.4308   263.1111 </r>
       <r>     3.4738     0.0012   263.1112 </r>
       <r>     3.6055     2.0741   263.3844 </r>
       <r>     3.7372     1.2993   263.5555 </r>
       <r>     3.8689     0.0001   263.5556 </r>
       <r>     4.0006     0.0000   263.5556 </r>
       <r>     4.1323     0.2962   263.5946 </r>
       <r>     4.2640     3.0484   263.9961 </r>
       <r>     4.3957     0.0300   264.0000 </r>
       <r>     4.5274     0.0000   264.0000 </r>
       <r>     4.6591     0.0000   264.0000 </r>
       <r>     4.7908     0.0000   264.0000 </r>
       <r>     4.9225     0.0000   264.0000 </r>
       <r>     5.0542     0.0000   264.0000 </r>
       <r>     5.1859     0.0000   264.0000 </r>
       <r>     5.3176     0.0000   264.0000 </r>
       <r>     5.4494     0.0000   264.0000 </r>
       <r>     5.5811     0.0000   264.0000 </r>
       <r>     5.7128     0.0000   264.0000 </r>
       <r>     5.8445     0.0000   264.0000 </r>
       <r>     5.9762     0.0000   264.0000 </r>
      </set>
     </set>
    </array>
   </total>
  </dos>
 </calculation>
 <structure name="finalpos" >
  <crystal>
   <varray name="basis" >
    <v>      12.30000019       0.00000000       0.00000000 </v>
    <v>       6.15000080      10.65211222       0.00000000 </v>
    <v>       0.00000000       0.00000000      20.00000000 </v>
   </varray>
   <i name="volume">   2620.41964732 </i>
   <varray name="rec_basis" >
    <v>       0.08130081      -0.04693905       0.00000000 </v>
    <v>       0.00000000       0.09387809       0.00000000 </v>
    <v>       0.00000000       0.00000000       0.05000000 </v>
   </varray>
  </crystal>
  <varray name="positions" >
   <v>       0.00000000       0.00000000       0.41799748 </v>
   <v>       0.20000000       0.00000000       0.41799748 </v>
   <v>       0.40000000       0.00000000       0.41799748 </v>
   <v>       0.60000000       0.00000000       0.41799748 </v>
   <v>       0.80000000       0.00000000       0.41799748 </v>
   <v>       0.00000000       0.20000000       0.41799748 </v>
   <v>       0.20000000       0.20000000       0.41849748 </v>
   <v>       0.40000000       0.20000000       0.41799748 </v>
   <v>       0.60000000       0.20000000       0.41799748 </v>
   <v>       0.80000000       0.20000000       0.41799748 </v>
   <v>       0.00000000       0.40000000       0.41799748 </v>
   <v>       0.20000000       0.40000000       0.41799748 </v>
   <v>       0.40000000       0.40000000       0.41799748 </v>
   <v>       0.60000000       0.40000000       0.41799748 </v>
   <v>       0.80000000       0.40000000       0.41799748 </v>
   <v>       0.00000000       0.60000000       0.41799748 </v>
   <v>       0.20000000       0.60000000       0.41799748 </v>
   <v>       0.40000000       0.60000000       0.41799748 </v>
   <v>       0.60000000       0.60000000       0.41799748 </v>
   <v>       0.80000000       0.60000000       0.41799748 </v>
   <v>       0.00000000       0.80000000       0.41799748 </v>
   <v>       0.20000000       0.80000000       0.41799748 </v>
   <v>       0.40000000       0.80000000       0.41799748 </v>
   <v>       0.60000000       0.80000000       0.41799748 </v>
   <v>       0.80000000       0.80000000       0.41799748 </v>
   <v>       0.06666667       0.06666660       0.41800609 </v>
   <v>       0.26666667       0.06666660       0.41800609 </v>
   <v>       0.46666667       0.06666660       0.41800609 </v>
   <v>       0.66666667       0.06666660       0.41800609 </v>
   <v>       0.86666667       0.06666660       0.41800609 </v>
   <v>       0.06666667       0.26666660       0.41800609 </v>
   <v>       0.26666667       0.26666660       0.41800609 </v>
   <v>       0.46666667       0.26666660       0.41800609 </v>
   <v>       0.66666667       0.26666660       0.41800609 </v>
   <v>       0.86666667       0.26666660       0.41800609 </v>
   <v>       0.06666667       0.46666660       0.41800609 </v>
   <v>       0.26666667       0.46666660       0.41800609 </v>
   <v>       0.46666667       0.46666660       0.41800609 </v>
   <v>       0.66666667       0.46666660       0.41800609 </v>
   <v>       0.86666667       0.46666660       0.41800609 </v>
   <v>       0.06666667       0.66666660       0.41800609 </v>
   <v>       0.26666667       0.66666660       0.41800609 </v>
   <v>       0.46666667       0.66666660       0.41800609 </v>
   <v>       0.66666667       0.66666660       0.41800609 </v>
   <v>       0.86666667       0.66666660       0.41800609 </v>
   <v>       0.06666667       0.86666660       0.41800609 </v>
   <v>       0.26666667       0.86666660       0.41800609 </v>
   <v>       0.46666667       0.86666660       0.41800609 </v>
   <v>       0.66666667       0.86666660       0.41800609 </v>
   <v>       0.86666667       0.86666660       0.41800609 </v>
   <v>       0.40000000       0.40000000       0.46800609 </v>
  </varray>
  <varray name="velocities" >
   <v>       0.00000000       0.00000000       0.00000000 </v>
   <v>       0.00000000       0.00000000       0.00000000 </v>
   <v>       0.00000000       0.00000000       0.00000000 </v>
   <v>       0.00000000       0.00000000       0.00000000 </v>
   <v>       0.00000000       0.00000000       0.00000000 </v>
   <v>       0.00000000       0.00000000       0.00000000 </v>
   <v>       0.00000000       0.00000000       0.00000000 </v>
   <v>       0.00000000       0.00000000       0.00000000 </v>
   <v>       0.00000000       0.00000000       0.00000000 </v>
   <v>       0.00000000       0.00000000       0.00000000 </v>
   <v>       0.00000000       0.00000000       0.00000000 </v>
   <v>       0.00000000       0.00000000       0.00000000 </v>
   <v>       0.00000000       0.00000000       0.00000000 </v>
   <v>       0.00000000       0.00000000       0.00000000 </v>
   <v>       0.00000000       0.00000000       0.00000000 </v>
   <v>       0.00000000       0.00000000       0.00000000 </v>
   <v>       0.00000000       0.00000000       0.00000000 </v>
   <v>       0.00000000       0.00000000       0.00000000 </v>
   <v>       0.00000000       0.00000000       0.00000000 </v>
   <v>       0.00000000       0.00000000       0.00000000 </v>
   <v>       0.00000000       0.00000000       0.00000000 </v>
   <v>       0.00000000       0.00000000       0.00000000 </v>
   <v>       0.00000000       0.00000000       0.00000000 </v>
   <v>       0.00000000       0.00000000       0.00000000 </v>
   <v>       0.00000000       0.00000000       0.00000000 </v>
   <v>       0.00000000       0.00000000       0.00000000 </v>
   <v>       0.00000000       0.00000000       0.00000000 </v>
   <v>       0.00000000       0.00000000       0.00000000 </v>
   <v>       0.00000000       0.00000000       0.00000000 </v>
   <v>       0.00000000       0.00000000       0.00000000 </v>
   <v>       0.00000000       0.00000000       0.00000000 </v>
   <v>       0.00000000       0.00000000       0.00000000 </v>
   <v>       0.00000000       0.00000000       0.00000000 </v>
   <v>       0.00000000       0.00000000       0.00000000 </v>
   <v>       0.00000000       0.00000000       0.00000000 </v>
   <v>       0.00000000       0.00000000       0.00000000 </v>
   <v>       0.00000000       0.00000000       0.00000000 </v>
   <v>       0.00000000       0.00000000       0.00000000 </v>
   <v>       0.00000000       0.00000000       0.00000000 </v>
   <v>       0.00000000       0.00000000       0.00000000 </v>
   <v>       0.00000000       0.00000000       0.00000000 </v>
   <v>       0.00000000       0.00000000       0.00000000 </v>
   <v>       0.00000000       0.00000000       0.00000000 </v>
   <v>       0.00000000       0.00000000       0.00000000 </v>
   <v>       0.00000000       0.00000000       0.00000000 </v>
   <v>       0.00000000       0.00000000       0.00000000 </v>
   <v>       0.00000000       0.00000000       0.00000000 </v>
   <v>       0.00000000       0.00000000       0.00000000 </v>
   <v>       0.00000000       0.00000000       0.00000000 </v>
   <v>       0.00000000       0.00000000       0.00000000 </v>
   <v>       0.00000000       0.00000000       0.00000000 </v>
  </varray>
 </structure>
</modeling>
