  51  51   0   0
  0.5138078E+02  0.1230000E-08  0.1230000E-08  0.2000000E-08  0.5000000E-15
  1.000000000000000E-004
  CAR 
                                         
      5.97652954    -33.53693811  301     -3.01738279      1.00000000
    -33.537  0.0000E+00  0.0000E+00
    -33.405  0.0000E+00  0.0000E+00
    -33.274  0.0000E+00  0.0000E+00
    -33.142  0.0000E+00  0.0000E+00
    -33.010  0.0000E+00  0.0000E+00
    -32.878  0.0000E+00  0.0000E+00
    -32.747  0.0000E+00  0.0000E+00
    -32.615  0.0000E+00  0.0000E+00
    -32.483  0.0000E+00  0.0000E+00
    -32.352  0.0000E+00  0.0000E+00
    -32.220  0.0000E+00  0.0000E+00
    -32.088  0.0000E+00  0.0000E+00
    -31.956  0.8187E-08  0.1078E-08
    -31.825  0.1343E+00  0.1769E-01
    -31.693  0.1371E+02  0.1824E+01
    -31.561  0.1336E+01  0.2000E+01
    -31.430  0.2885E-05  0.2000E+01
    -31.298  0.0000E+00  0.2000E+01
    -31.166  0.0000E+00  0.2000E+01
    -31.034  0.0000E+00  0.2000E+01
    -30.903  0.0000E+00  0.2000E+01
    -30.771  0.0000E+00  0.2000E+01
    -30.639  0.0000E+00  0.2000E+01
    -30.508  0.0000E+00  0.2000E+01
    -30.376  0.0000E+00  0.2000E+01
    -30.244  0.0000E+00  0.2000E+01
    -30.112  0.0000E+00  0.2000E+01
    -29.981  0.0000E+00  0.2000E+01
    -29.849  0.0000E+00  0.2000E+01
    -29.717  0.0000E+00  0.2000E+01
    -29.586  0.0000E+00  0.2000E+01
    -29.454  0.0000E+00  0.2000E+01
    -29.322  0.0000E+00  0.2000E+01
    -29.190  0.0000E+00  0.2000E+01
    -29.059  0.0000E+00  0.2000E+01
    -28.927  0.0000E+00  0.2000E+01
    -28.795  0.0000E+00  0.2000E+01
    -28.664  0.0000E+00  0.2000E+01
    -28.532  0.0000E+00  0.2000E+01
    -28.400  0.0000E+00  0.2000E+01
    -28.268  0.0000E+00  0.2000E+01
    -28.137  0.0000E+00  0.2000E+01
    -28.005  0.0000E+00  0.2000E+01
    -27.873  0.0000E+00  0.2000E+01
    -27.742  0.0000E+00  0.2000E+01
    -27.610  0.0000E+00  0.2000E+01
    -27.478  0.0000E+00  0.2000E+01
    -27.346  0.0000E+00  0.2000E+01
    -27.215  0.0000E+00  0.2000E+01
    -27.083  0.0000E+00  0.2000E+01
    -26.951  0.0000E+00  0.2000E+01
    -26.820  0.0000E+00  0.2000E+01
    -26.688  0.0000E+00  0.2000E+01
    -26.556  0.0000E+00  0.2000E+01
    -26.425  0.0000E+00  0.2000E+01
    -26.293  0.0000E+00  0.2000E+01
    -26.161  0.0000E+00  0.2000E+01
    -26.029  0.0000E+00  0.2000E+01
    -25.898  0.0000E+00  0.2000E+01
    -25.766  0.0000E+00  0.2000E+01
    -25.634  0.0000E+00  0.2000E+01
    -25.503  0.0000E+00  0.2000E+01
    -25.371  0.0000E+00  0.2000E+01
    -25.239  0.0000E+00  0.2000E+01
    -25.107  0.0000E+00  0.2000E+01
    -24.976  0.0000E+00  0.2000E+01
    -24.844  0.0000E+00  0.2000E+01
    -24.712  0.0000E+00  0.2000E+01
    -24.581  0.0000E+00  0.2000E+01
    -24.449  0.0000E+00  0.2000E+01
    -24.317  0.0000E+00  0.2000E+01
    -24.185  0.0000E+00  0.2000E+01
    -24.054  0.0000E+00  0.2000E+01
    -23.922  0.0000E+00  0.2000E+01
    -23.790  0.0000E+00  0.2000E+01
    -23.659  0.0000E+00  0.2000E+01
    -23.527  0.0000E+00  0.2000E+01
    -23.395  0.0000E+00  0.2000E+01
    -23.263  0.0000E+00  0.2000E+01
    -23.132  0.0000E+00  0.2000E+01
    -23.000  0.0000E+00  0.2000E+01
    -22.868  0.0000E+00  0.2000E+01
    -22.737  0.0000E+00  0.2000E+01
    -22.605  0.0000E+00  0.2000E+01
    -22.473  0.9467E-08  0.2000E+01
    -22.341  0.3978E-01  0.2005E+01
    -22.210  0.4417E+01  0.2587E+01
    -22.078  0.9211E+01  0.3800E+01
    -21.946  0.4902E+01  0.4446E+01
    -21.815  0.1071E+02  0.5857E+01
    -21.683  0.5530E+01  0.6586E+01
    -21.551  0.7684E+01  0.7598E+01
    -21.419  0.1275E+02  0.9277E+01
    -21.288  0.5486E+01  0.9999E+01
    -21.156  0.3778E+01  0.1050E+02
    -21.024  0.9229E+01  0.1171E+02
    -20.893  0.1080E+02  0.1313E+02
    -20.761  0.1001E+02  0.1445E+02
    -20.629  0.8345E+01  0.1555E+02
    -20.497  0.2038E+00  0.1558E+02
    -20.366  0.1316E+02  0.1731E+02
    -20.234  0.3931E+01  0.1783E+02
    -20.102  0.1861E+02  0.2028E+02
    -19.971  0.1256E+01  0.2045E+02
    -19.839  0.3609E+01  0.2092E+02
    -19.707  0.1393E+02  0.2276E+02
    -19.576  0.8471E+01  0.2387E+02
    -19.444  0.6026E+01  0.2467E+02
    -19.312  0.6934E+01  0.2558E+02
    -19.180  0.1399E+02  0.2742E+02
    -19.049  0.7560E+01  0.2842E+02
    -18.917  0.4703E+01  0.2904E+02
    -18.785  0.5217E+01  0.2972E+02
    -18.654  0.5263E+01  0.3042E+02
    -18.522  0.1384E+02  0.3224E+02
    -18.390  0.1139E+02  0.3374E+02
    -18.258  0.8648E+01  0.3488E+02
    -18.127  0.4911E+01  0.3553E+02
    -17.995  0.1524E+02  0.3753E+02
    -17.863  0.4797E+01  0.3817E+02
    -17.732  0.3718E+01  0.3866E+02
    -17.600  0.5937E+01  0.3944E+02
    -17.468  0.1575E+02  0.4151E+02
    -17.336  0.4134E+01  0.4206E+02
    -17.205  0.2135E+02  0.4487E+02
    -17.073  0.6808E+01  0.4577E+02
    -16.941  0.3479E+01  0.4622E+02
    -16.810  0.8924E+01  0.4740E+02
    -16.678  0.4159E+01  0.4795E+02
    -16.546  0.8792E+01  0.4911E+02
    -16.414  0.8887E+01  0.5028E+02
    -16.283  0.3048E+01  0.5068E+02
    -16.151  0.9339E+01  0.5191E+02
    -16.019  0.5874E+01  0.5268E+02
    -15.888  0.1301E+02  0.5439E+02
    -15.756  0.1191E+02  0.5596E+02
    -15.624  0.2151E+01  0.5625E+02
    -15.492  0.4239E+01  0.5681E+02
    -15.361  0.2717E+01  0.5716E+02
    -15.229  0.1022E+02  0.5851E+02
    -15.097  0.2210E+02  0.6142E+02
    -14.966  0.4675E+01  0.6204E+02
    -14.834  0.1151E+02  0.6355E+02
    -14.702  0.1037E+02  0.6492E+02
    -14.570  0.6388E+01  0.6576E+02
    -14.439  0.1592E+02  0.6786E+02
    -14.307  0.4471E+01  0.6844E+02
    -14.175  0.1107E+01  0.6859E+02
    -14.044  0.4007E+01  0.6912E+02
    -13.912  0.1020E+02  0.7046E+02
    -13.780  0.1694E+02  0.7269E+02
    -13.648  0.1759E+02  0.7501E+02
    -13.517  0.1690E+01  0.7523E+02
    -13.385  0.2459E+01  0.7556E+02
    -13.253  0.5449E+00  0.7563E+02
    -13.122  0.1129E+02  0.7711E+02
    -12.990  0.1389E+02  0.7894E+02
    -12.858  0.2041E+02  0.8163E+02
    -12.727  0.1114E+01  0.8178E+02
    -12.595  0.5055E+01  0.8244E+02
    -12.463  0.1745E+02  0.8474E+02
    -12.331  0.1081E+02  0.8616E+02
    -12.200  0.3603E+01  0.8664E+02
    -12.068  0.3288E+01  0.8707E+02
    -11.936  0.1202E+02  0.8866E+02
    -11.805  0.3747E+01  0.8915E+02
    -11.673  0.1624E+02  0.9129E+02
    -11.541  0.1756E+02  0.9360E+02
    -11.409  0.1342E+02  0.9537E+02
    -11.278  0.8513E+01  0.9649E+02
    -11.146  0.5535E+01  0.9722E+02
    -11.014  0.7647E+01  0.9823E+02
    -10.883  0.1329E+02  0.9998E+02
    -10.751  0.1667E+02  0.1022E+03
    -10.619  0.2122E+01  0.1025E+03
    -10.487  0.2055E+02  0.1052E+03
    -10.356  0.3795E+01  0.1057E+03
    -10.224  0.2500E+02  0.1090E+03
    -10.092  0.2522E+02  0.1123E+03
     -9.961  0.1814E+02  0.1147E+03
     -9.829  0.1518E+02  0.1167E+03
     -9.697  0.1725E+02  0.1189E+03
     -9.565  0.2795E+02  0.1226E+03
     -9.434  0.2038E+02  0.1253E+03
     -9.302  0.2758E+02  0.1289E+03
     -9.170  0.2346E+02  0.1320E+03
     -9.039  0.2879E+02  0.1358E+03
     -8.907  0.2010E+02  0.1385E+03
     -8.775  0.1711E+02  0.1407E+03
     -8.643  0.2387E+02  0.1439E+03
     -8.512  0.1711E+02  0.1461E+03
     -8.380  0.1652E+02  0.1483E+03
     -8.248  0.1519E+02  0.1503E+03
     -8.117  0.1643E+02  0.1525E+03
     -7.985  0.2840E+02  0.1562E+03
     -7.853  0.1613E+02  0.1583E+03
     -7.721  0.1604E+02  0.1604E+03
     -7.590  0.8276E+01  0.1615E+03
     -7.458  0.1974E+01  0.1618E+03
     -7.326  0.1844E+02  0.1642E+03
     -7.195  0.3209E+02  0.1684E+03
     -7.063  0.1511E+02  0.1704E+03
     -6.931  0.4823E+01  0.1711E+03
     -6.799  0.1892E+02  0.1736E+03
     -6.668  0.1287E+02  0.1752E+03
     -6.536  0.1591E+02  0.1773E+03
     -6.404  0.7063E+01  0.1783E+03
     -6.273  0.1268E+02  0.1799E+03
     -6.141  0.1532E+02  0.1820E+03
     -6.009  0.1352E+02  0.1837E+03
     -5.878  0.2049E+02  0.1864E+03
     -5.746  0.7779E+01  0.1875E+03
     -5.614  0.1360E+02  0.1893E+03
     -5.482  0.3101E+01  0.1897E+03
     -5.351  0.8002E+01  0.1907E+03
     -5.219  0.8460E+01  0.1918E+03
     -5.087  0.1210E+02  0.1934E+03
     -4.956  0.1867E+02  0.1959E+03
     -4.824  0.1446E+02  0.1978E+03
     -4.692  0.3177E+01  0.1982E+03
     -4.560  0.7093E-01  0.1982E+03
     -4.429  0.5084E-04  0.1982E+03
     -4.297  0.3303E+01  0.1987E+03
     -4.165  0.1735E+02  0.2009E+03
     -4.034  0.4650E+01  0.2016E+03
     -3.902  0.6428E-03  0.2016E+03
     -3.770  0.4932E+00  0.2016E+03
     -3.638  0.2868E+01  0.2020E+03
     -3.507  0.3045E+00  0.2020E+03
     -3.375  0.4481E+01  0.2026E+03
     -3.243  0.1228E+02  0.2042E+03
     -3.112  0.1092E+02  0.2057E+03
     -2.980  0.2455E+01  0.2060E+03
     -2.848  0.2656E+01  0.2064E+03
     -2.716  0.9027E+01  0.2075E+03
     -2.585  0.6683E-01  0.2076E+03
     -2.453  0.1066E+00  0.2076E+03
     -2.321  0.3174E+01  0.2080E+03
     -2.190  0.2919E+01  0.2084E+03
     -2.058  0.5499E+00  0.2084E+03
     -1.926  0.4225E-05  0.2084E+03
     -1.794  0.4709E-07  0.2084E+03
     -1.663  0.2208E+00  0.2085E+03
     -1.531  0.9574E+01  0.2097E+03
     -1.399  0.1281E+02  0.2114E+03
     -1.268  0.2707E+01  0.2118E+03
     -1.136  0.1228E-03  0.2118E+03
     -1.004  0.1262E+01  0.2119E+03
     -0.872  0.1136E+02  0.2134E+03
     -0.741  0.2283E+02  0.2164E+03
     -0.609  0.1816E+02  0.2188E+03
     -0.477  0.5249E+01  0.2195E+03
     -0.346  0.2298E+00  0.2196E+03
     -0.214  0.4744E+01  0.2202E+03
     -0.082  0.1130E+02  0.2217E+03
      0.050  0.1034E+02  0.2230E+03
      0.181  0.7587E+00  0.2231E+03
      0.313  0.1663E+02  0.2253E+03
      0.445  0.7268E+01  0.2263E+03
      0.576  0.3242E+01  0.2267E+03
      0.708  0.1154E+02  0.2282E+03
      0.840  0.1638E+02  0.2304E+03
      0.971  0.6246E+01  0.2312E+03
      1.103  0.1130E+02  0.2327E+03
      1.235  0.1457E+02  0.2346E+03
      1.367  0.8678E+01  0.2358E+03
      1.498  0.1497E+02  0.2377E+03
      1.630  0.2302E+02  0.2408E+03
      1.762  0.1667E+02  0.2430E+03
      1.893  0.2631E+02  0.2464E+03
      2.025  0.8315E+01  0.2475E+03
      2.157  0.1697E+02  0.2498E+03
      2.289  0.2592E+02  0.2532E+03
      2.420  0.2827E+02  0.2569E+03
      2.552  0.6899E+01  0.2578E+03
      2.684  0.6603E+01  0.2587E+03
      2.815  0.9895E+01  0.2600E+03
      2.947  0.3955E+01  0.2605E+03
      3.079  0.9234E+01  0.2617E+03
      3.211  0.2852E+01  0.2621E+03
      3.342  0.4387E+01  0.2627E+03
      3.474  0.2404E-01  0.2627E+03
      3.606  0.3081E+01  0.2631E+03
      3.737  0.3664E+01  0.2636E+03
      3.869  0.2465E-02  0.2636E+03
      4.001  0.6367E-06  0.2636E+03
      4.133  0.2961E+00  0.2636E+03
      4.264  0.3048E+01  0.2640E+03
      4.396  0.2996E-01  0.2640E+03
      4.528  0.1834E-08  0.2640E+03
      4.659  0.0000E+00  0.2640E+03
      4.791  0.0000E+00  0.2640E+03
      4.923  0.0000E+00  0.2640E+03
      5.055  0.0000E+00  0.2640E+03
      5.186  0.0000E+00  0.2640E+03
      5.318  0.0000E+00  0.2640E+03
      5.450  0.0000E+00  0.2640E+03
      5.581  0.0000E+00  0.2640E+03
      5.713  0.0000E+00  0.2640E+03
      5.845  0.0000E+00  0.2640E+03
      5.977  0.0000E+00  0.2640E+03
