 vasp.5.4.4.18Apr17-6-g9f103f2a35 (build Aug 13 2022 23:40:43) complex          
  
 executed on             LinuxIFC date 2024.11.10  03:47:35
 running on   48 total cores
 distrk:  each k-point on   48 cores,    1 groups
 distr:  one band on NCORES_PER_BAND=   8 cores,    6 groups


--------------------------------------------------------------------------------------------------------


 INCAR:
 POTCAR:    PAW_PBE C 08Apr2002                   
 POTCAR:    PAW_PBE O 08Apr2002                   
 POTCAR:    PAW_PBE C 08Apr2002                   
   VRHFIN =C: s2p2                                                              
   LEXCH  = PE                                                                  
   EATOM  =   147.1560 eV,   10.8157 Ry                                         
                                                                                
   TITEL  = PAW_PBE C 08Apr2002                                                 
   LULTRA =        F    use ultrasoft PP ?                                      
   IUNSCR =        1    unscreen: 0-lin 1-nonlin 2-no                           
   RPACOR =    1.200    partial core radius                                     
   POMASS =   12.011; ZVAL   =    4.000    mass and valenz                      
   RCORE  =    1.500    outmost cutoff radius                                   
   RWIGS  =    1.630; RWIGS  =    0.863    wigner-seitz radius (au A)           
   ENMAX  =  400.000; ENMIN  =  300.000 eV                                      
   ICORE  =        2    local potential                                         
   LCOR   =        T    correct aug charges                                     
   LPAW   =        T    paw PP                                                  
   EAUG   =  644.873                                                            
   DEXC   =    0.000                                                            
   RMAX   =    1.529    core radius for proj-oper                               
   RAUG   =    1.300    factor for augmentation sphere                          
   RDEP   =    1.501    radius for radial grids                                 
   RDEPT  =    1.300    core radius for aug-charge                              
                                                                                
   Atomic configuration                                                         
    4 entries                                                                   
     n  l   j            E        occ.                                          
     1  0  0.50      -273.3789   2.0000                                         
     2  0  0.50       -13.7508   2.0000                                         
     2  1  0.50        -5.2854   2.0000                                         
     3  2  1.50        -5.4423   0.0000                                         
   Description                                                                  
     l       E           TYP  RCUT    TYP  RCUT                                 
     0    -13.7508458     23  1.200                                             
     0     -8.2022199     23  1.200                                             
     1     -5.2854383     23  1.500                                             
     1     34.0145650     23  1.500                                             
     2     -5.4423304      7  1.500                                             
  local pseudopotential read in
  partial core-charges read in
  partial kinetic energy density read in
  atomic valenz-charges read in
  non local Contribution for L=           0  read in
    real space projection operators read in
  non local Contribution for L=           0  read in
    real space projection operators read in
  non local Contribution for L=           1  read in
    real space projection operators read in
  non local Contribution for L=           1  read in
    real space projection operators read in
    PAW grid and wavefunctions read in
 
   number of l-projection  operators is LMAX  =           4
   number of lm-projection operators is LMMAX =           8
 
 POTCAR:    PAW_PBE O 08Apr2002                   
   VRHFIN =O: s2p4                                                              
   LEXCH  = PE                                                                  
   EATOM  =   432.3788 eV,   31.7789 Ry                                         
                                                                                
   TITEL  = PAW_PBE O 08Apr2002                                                 
   LULTRA =        F    use ultrasoft PP ?                                      
   IUNSCR =        1    unscreen: 0-lin 1-nonlin 2-no                           
   RPACOR =    1.200    partial core radius                                     
   POMASS =   16.000; ZVAL   =    6.000    mass and valenz                      
   RCORE  =    1.520    outmost cutoff radius                                   
   RWIGS  =    1.550; RWIGS  =    0.820    wigner-seitz radius (au A)           
   ENMAX  =  400.000; ENMIN  =  300.000 eV                                      
   ICORE  =        2    local potential                                         
   LCOR   =        T    correct aug charges                                     
   LPAW   =        T    paw PP                                                  
   EAUG   =  605.392                                                            
   DEXC   =    0.000                                                            
   RMAX   =    1.553    core radius for proj-oper                               
   RAUG   =    1.300    factor for augmentation sphere                          
   RDEP   =    1.550    radius for radial grids                                 
   RDEPT  =    1.329    core radius for aug-charge                              
                                                                                
   Atomic configuration                                                         
    4 entries                                                                   
     n  l   j            E        occ.                                          
     1  0  0.50      -514.6923   2.0000                                         
     2  0  0.50       -23.9615   2.0000                                         
     2  1  0.50        -9.0305   4.0000                                         
     3  2  1.50        -9.5241   0.0000                                         
   Description                                                                  
     l       E           TYP  RCUT    TYP  RCUT                                 
     0    -23.9615318     23  1.200                                             
     0     -9.5240782     23  1.200                                             
     1     -9.0304911     23  1.520                                             
     1      8.1634956     23  1.520                                             
     2     -9.5240782      7  1.500                                             
  local pseudopotential read in
  partial core-charges read in
  partial kinetic energy density read in
  kinetic energy density of atom read in
  atomic valenz-charges read in
  non local Contribution for L=           0  read in
    real space projection operators read in
  non local Contribution for L=           0  read in
    real space projection operators read in
  non local Contribution for L=           1  read in
    real space projection operators read in
  non local Contribution for L=           1  read in
    real space projection operators read in
    PAW grid and wavefunctions read in
 
   number of l-projection  operators is LMAX  =           4
   number of lm-projection operators is LMMAX =           8
 

 ----------------------------------------------------------------------------- 
|                                                                             |
|  ADVICE TO THIS USER RUNNING 'VASP/VAMP'   (HEAR YOUR MASTER'S VOICE ...):  |
|                                                                             |
|      You have a (more or less) 'large supercell' and for larger cells       |
|      it might be more efficient to use real space projection opertators     |
|      So try LREAL= Auto  in the INCAR   file.                               |
|      Mind:          For very  accurate calculation you might also keep the  |
|      reciprocal projection scheme          (i.e. LREAL=.FALSE.)             |
|                                                                             |
 ----------------------------------------------------------------------------- 

  PAW_PBE C 08Apr2002                   :
 energy of atom  1       EATOM= -147.1560
 kinetic energy error for atom=    0.0288 (will be added to EATOM!!)
  PAW_PBE O 08Apr2002                   :
 energy of atom  2       EATOM= -432.3788
 kinetic energy error for atom=    0.1156 (will be added to EATOM!!)
 
 
 POSCAR: generated by phonopy                    
  positions in direct lattice
  No initial velocities read in
 exchange correlation table for  LEXCH =        8
   RHO(1)=    0.500       N(1)  =     2000
   RHO(2)=  100.500       N(2)  =     4000

 VTST: version 3.2, (02/03/18)

 CHAIN: initializing optimizer
 
 OPT: Using VASP Dynamics algorithm
 CHAIN: Read ICHAIN            0
 
 POSCAR: generated by phonopy                    
  positions in direct lattice
  No initial velocities read in
 


--------------------------------------------------------------------------------------------------------


 ion  position               nearest neighbor table
   1  0.000  0.000  0.418-  26 1.42  30 1.42  46 1.42
   2  0.200  0.000  0.418-  27 1.42  26 1.42  47 1.42
   3  0.400  0.000  0.417-  28 1.42  27 1.42  48 1.42
   4  0.600  0.000  0.418-  29 1.42  28 1.42  49 1.42
   5  0.800  0.000  0.418-  30 1.42  29 1.42  50 1.42
   6  0.000  0.200  0.418-  31 1.42  35 1.42  26 1.42
   7  0.200  0.200  0.418-  32 1.42  31 1.42  27 1.42
   8  0.400  0.200  0.418-  33 1.42  32 1.42  28 1.42
   9  0.600  0.200  0.418-  34 1.42  33 1.42  29 1.42
  10  0.800  0.200  0.418-  35 1.42  34 1.42  30 1.42
  11  0.000  0.400  0.418-  36 1.42  40 1.42  31 1.42
  12  0.200  0.400  0.418-  37 1.42  36 1.42  32 1.42
  13  0.400  0.400  0.418-  51 1.00  38 1.42  37 1.42  33 1.42
  14  0.600  0.400  0.418-  39 1.42  38 1.42  34 1.42
  15  0.800  0.400  0.418-  40 1.42  39 1.42  35 1.42
  16  0.000  0.600  0.418-  41 1.42  45 1.42  36 1.42
  17  0.200  0.600  0.418-  42 1.42  41 1.42  37 1.42
  18  0.400  0.600  0.418-  43 1.42  42 1.42  38 1.42
  19  0.600  0.600  0.418-  44 1.42  43 1.42  39 1.42
  20  0.800  0.600  0.418-  45 1.42  44 1.42  40 1.42
  21  0.000  0.800  0.418-  46 1.42  50 1.42  41 1.42
  22  0.200  0.800  0.418-  47 1.42  46 1.42  42 1.42
  23  0.400  0.800  0.418-  48 1.42  47 1.42  43 1.42
  24  0.600  0.800  0.418-  49 1.42  48 1.42  44 1.42
  25  0.800  0.800  0.418-  50 1.42  49 1.42  45 1.42
  26  0.067  0.067  0.418-   1 1.42   2 1.42   6 1.42
  27  0.267  0.067  0.418-   2 1.42   7 1.42   3 1.42
  28  0.467  0.067  0.418-   4 1.42   8 1.42   3 1.42
  29  0.667  0.067  0.418-   4 1.42   5 1.42   9 1.42
  30  0.867  0.067  0.418-   5 1.42   1 1.42  10 1.42
  31  0.067  0.267  0.418-   6 1.42   7 1.42  11 1.42
  32  0.267  0.267  0.418-   7 1.42   8 1.42  12 1.42
  33  0.467  0.267  0.418-   8 1.42   9 1.42  13 1.42  51 1.74
  34  0.667  0.267  0.418-   9 1.42  10 1.42  14 1.42
  35  0.867  0.267  0.418-  10 1.42   6 1.42  15 1.42
  36  0.067  0.467  0.418-  11 1.42  12 1.42  16 1.42
  37  0.267  0.467  0.418-  12 1.42  13 1.42  17 1.42  51 1.74
  38  0.467  0.467  0.418-  13 1.42  14 1.42  18 1.42  51 1.74
  39  0.667  0.467  0.418-  14 1.42  15 1.42  19 1.42
  40  0.867  0.467  0.418-  15 1.42  11 1.42  20 1.42
  41  0.067  0.667  0.418-  16 1.42  17 1.42  21 1.42
  42  0.267  0.667  0.418-  17 1.42  18 1.42  22 1.42
  43  0.467  0.667  0.418-  18 1.42  19 1.42  23 1.42
  44  0.667  0.667  0.418-  19 1.42  20 1.42  24 1.42
  45  0.867  0.667  0.418-  20 1.42  16 1.42  25 1.42
  46  0.067  0.867  0.418-  21 1.42  22 1.42   1 1.42
  47  0.267  0.867  0.418-  22 1.42  23 1.42   2 1.42
  48  0.467  0.867  0.418-  23 1.42  24 1.42   3 1.42
  49  0.667  0.867  0.418-  24 1.42  25 1.42   4 1.42
  50  0.867  0.867  0.418-  25 1.42  21 1.42   5 1.42
  51  0.400  0.400  0.468-  13 1.00  38 1.74  37 1.74  33 1.74
 
  LATTYP: Found a hexagonal cell.
 ALAT       =    12.2999994816
 C/A-ratio  =     1.6260163287
  
  Lattice vectors:
  
 A1 = (   6.1499993860, -10.6521122225,   0.0000000000)
 A2 = ( -12.3000001905,   0.0000000000,   0.0000000000)
 A3 = (   0.0000000000,   0.0000000000, -20.0000000000)


Analysis of symmetry for initial positions (statically):
=====================================================================
 Subroutine PRICEL returns:
 Original cell was already a primitive cell.
 

 Routine SETGRP: Setting up the symmetry group for a 
 hexagonal supercell.


 Subroutine GETGRP returns: Found  1 space group operations
 (whereof  1 operations were pure point group operations)
 out of a pool of 24 trial point group operations.


The static configuration has the point symmetry C_1 .


Analysis of symmetry for dynamics (positions and initial velocities):
=====================================================================
 Subroutine PRICEL returns:
 Original cell was already a primitive cell.
 

 Routine SETGRP: Setting up the symmetry group for a 
 hexagonal supercell.


 Subroutine GETGRP returns: Found  1 space group operations
 (whereof  1 operations were pure point group operations)
 out of a pool of 24 trial point group operations.


The dynamic configuration has the point symmetry C_1 .


 Subroutine INISYM returns: Found  1 space group operations
 (whereof  1 operations are pure point group operations),
 and found     1 'primitive' translations

 
 
 KPOINTS: K-POINTS                                

Automatic generation of k-mesh.
Space group operators:
 irot       det(A)        alpha          n_x          n_y          n_z        tau_x        tau_y        tau_z
    1     1.000000     0.000000     1.000000     0.000000     0.000000     0.000000     0.000000     0.000000
 
 Subroutine IBZKPT returns following result:
 ===========================================
 
 Found      5 irreducible k-points:
 
 Following reciprocal coordinates:
            Coordinates               Weight
  0.000000  0.000000  0.000000      1.000000
  0.333333  0.000000  0.000000      2.000000
  0.000000  0.333333  0.000000      2.000000
  0.333333  0.333333  0.000000      2.000000
 -0.333333  0.333333  0.000000      2.000000
 
 Following cartesian coordinates:
            Coordinates               Weight
  0.000000  0.000000  0.000000      1.000000
  0.027100 -0.015646  0.000000      2.000000
  0.000000  0.031293  0.000000      2.000000
  0.027100  0.015646  0.000000      2.000000
 -0.027100  0.046939  0.000000      2.000000
 


--------------------------------------------------------------------------------------------------------




 Dimension of arrays:
   k-points           NKPTS =      5   k-points in BZ     NKDIM =      5   number of bands    NBANDS=    132
   number of dos      NEDOS =    301   number of ions     NIONS =     51
   non local maximal  LDIM  =      4   non local SUM 2l+1 LMDIM =      8
   total plane-waves  NPLWV = 896000
   max r-space proj   IRMAX =      1   max aug-charges    IRDMAX=  35685
   dimension x,y,z NGX =    80 NGY =   80 NGZ =  140
   dimension x,y,z NGXF=   160 NGYF=  160 NGZF=  280
   support grid    NGXF=   320 NGYF=  320 NGZF=  560
   ions per type =              50   1
   NGX,Y,Z   is equivalent  to a cutoff of  10.81, 10.81, 11.64 a.u.
   NGXF,Y,Z  is equivalent  to a cutoff of  21.63, 21.63, 23.27 a.u.

 SYSTEM =                                          
 POSCAR =  generated by phonopy                    

 Startparameter for this run:
   NWRITE =      2    write-flag & timer
   PREC   = accura    normal or accurate (medium, high low for compatibility)
   ISTART =      1    job   : 0-new  1-cont  2-samecut
   ICHARG =      1    charge: 1-file 2-atom 10-const
   ISPIN  =      1    spin polarized calculation?
   LNONCOLLINEAR =      F non collinear calculations
   LSORBIT =      F    spin-orbit coupling
   INIWAV =      1    electr: 0-lowe 1-rand  2-diag
   LASPH  =      F    aspherical Exc in radial PAW
   METAGGA=      F    non-selfconsistent MetaGGA calc.

 Electronic Relaxation 1
   ENCUT  =  400.0 eV  29.40 Ry    5.42 a.u.  20.06 20.06 32.61*2*pi/ulx,y,z
   ENINI  =  400.0     initial cutoff
   ENAUG  =  644.9 eV  augmentation charge cutoff
   NELM   =    300;   NELMIN=  2; NELMDL=  0     # of ELM steps 
   EDIFF  = 0.1E-04   stopping-criterion for ELM
   LREAL  =      F    real-space projection
   NLSPLINE    = F    spline interpolate recip. space projectors
   LCOMPAT=      F    compatible to vasp.4.4
   GGA_COMPAT  = T    GGA compatible to vasp.4.4-vasp.4.6
   LMAXPAW     = -100 max onsite density
   LMAXMIX     =    2 max onsite mixed and CHGCAR
   VOSKOWN=      0    Vosko Wilk Nusair interpolation
   ROPT   =    0.00000   0.00000
 Ionic relaxation
   EDIFFG = -.1E-02   stopping-criterion for IOM
   NSW    =      1    number of steps for IOM
   NBLOCK =      1;   KBLOCK =      1    inner block; outer block 
   IBRION =     -1    ionic relax: 0-MD 1-quasi-New 2-CG
   NFREE  =      0    steps in history (QN), initial steepest desc. (CG)
   ISIF   =      2    stress and relaxation
   IWAVPR =     10    prediction:  0-non 1-charg 2-wave 3-comb
   ISYM   =      2    0-nonsym 1-usesym 2-fastsym
   LCORR  =      T    Harris-Foulkes like correction to forces

   POTIM  = 0.5000    time-step for ionic-motion
   TEIN   =    0.0    initial temperature
   TEBEG  =    0.0;   TEEND  =   0.0 temperature during run
   SMASS  =  -3.00    Nose mass-parameter (am)
   estimated Nose-frequenzy (Omega)   =  0.10E-29 period in steps =****** mass=  -0.346E-26a.u.
   SCALEE = 1.0000    scale energy and forces
   NPACO  =    256;   APACO  = 16.0  distance and # of slots for P.C.
   PSTRESS=    0.0 pullay stress

  Mass of Ions in am
   POMASS =  12.01 16.00
  Ionic Valenz
   ZVAL   =   4.00  6.00
  Atomic Wigner-Seitz radii
   RWIGS  =  -1.00 -1.00
  virtual crystal weights 
   VCA    =   1.00  1.00
   NELECT =     206.0000    total number of electrons
   NUPDOWN=      -1.0000    fix difference up-down

 DOS related values:
   EMIN   =  10.00;   EMAX   =-10.00  energy-range for DOS
   EFERMI =   0.00
   ISMEAR =     0;   SIGMA  =   0.05  broadening in eV -4-tet -1-fermi 0-gaus

 Electronic relaxation 2 (details)
   IALGO  =     68    algorithm
   LDIAG  =      T    sub-space diagonalisation (order eigenvalues)
   LSUBROT=      F    optimize rotation matrix (better conditioning)
   TURBO    =      0    0=normal 1=particle mesh
   IRESTART =      0    0=no restart 2=restart with 2 vectors
   NREBOOT  =      0    no. of reboots
   NMIN     =      0    reboot dimension
   EREF     =   0.00    reference energy to select bands
   IMIX   =      4    mixing-type and parameters
     AMIX     =   0.40;   BMIX     =  1.00
     AMIX_MAG =   1.60;   BMIX_MAG =  1.00
     AMIN     =   0.10
     WC   =   100.;   INIMIX=   1;  MIXPRE=   1;  MAXMIX= -45

 Intra band minimization:
   WEIMIN = 0.0000     energy-eigenvalue tresh-hold
   EBREAK =  0.19E-07  absolut break condition
   DEPER  =   0.30     relativ break condition  

   TIME   =   0.40     timestep for ELM

  volume/ion in A,a.u.               =      51.38       346.73
  Fermi-wavevector in a.u.,A,eV,Ry     =   0.701305  1.325274  6.691736  0.491829
  Thomas-Fermi vector in A             =   1.785695
 
 Write flags
   LWAVE        =      F    write WAVECAR
   LDOWNSAMPLE  =      F    k-point downsampling of WAVECAR
   LCHARG       =      F    write CHGCAR
   LVTOT        =      F    write LOCPOT, total local potential
   LVHAR        =      F    write LOCPOT, Hartree potential only
   LELF         =      F    write electronic localiz. function (ELF)
   LORBIT       =      0    0 simple, 1 ext, 2 COOP (PROOUT), +10 PAW based schemes


 Dipole corrections
   LMONO  =      F    monopole corrections only (constant potential shift)
   LDIPOL =      F    correct potential (dipole corrections)
   IDIPOL =      0    1-x, 2-y, 3-z, 4-all directions 
   EPSILON=  1.0000000 bulk dielectric constant

 Exchange correlation treatment:
   GGA     =    --    GGA type
   LEXCH   =     8    internal setting for exchange type
   VOSKOWN=      0    Vosko Wilk Nusair interpolation
   LHFCALC =     F    Hartree Fock is set to
   LHFONE  =     F    Hartree Fock one center treatment
   AEXX    =    0.0000 exact exchange contribution

 Linear response parameters
   LEPSILON=     F    determine dielectric tensor
   LRPA    =     F    only Hartree local field effects (RPA)
   LNABLA  =     F    use nabla operator in PAW spheres
   LVEL    =     F    velocity operator in full k-point grid
   LINTERFAST=   F  fast interpolation
   KINTER  =     0    interpolate to denser k-point grid
   CSHIFT  =0.1000    complex shift for real part using Kramers Kronig
   OMEGAMAX=  -1.0    maximum frequency
   DEG_THRESHOLD= 0.2000000E-02 threshold for treating states as degnerate
   RTIME   =   -0.100 relaxation time in fs
  (WPLASMAI=    0.000 imaginary part of plasma frequency in eV, 0.658/RTIME)
   DFIELD  = 0.0000000 0.0000000 0.0000000 field for delta impulse in time
 
 Orbital magnetization related:
   ORBITALMAG=     F  switch on orbital magnetization
   LCHIMAG   =     F  perturbation theory with respect to B field
   DQ        =  0.001000  dq finite difference perturbation B field
   LLRAUG    =     F  two centre corrections for induced B field



--------------------------------------------------------------------------------------------------------


 Static calculation
 charge density and potential will be updated during run
 non-spin polarized calculation
 RMM-DIIS sequential band-by-band and
  variant of blocked Davidson during initial phase
 perform sub-space diagonalisation
    before iterative eigenvector-optimisation
 modified Broyden-mixing scheme, WC =      100.0
 initial mixing is a Kerker type mixing with AMIX =  0.4000 and BMIX =      1.0000
 Hartree-type preconditioning will be used
 using additional bands           29
 reciprocal scheme for non local part
 use partial core corrections
 calculate Harris-corrections to forces 
   (improved forces if not selfconsistent)
 use gradient corrections 
 use of overlap-Matrix (Vanderbilt PP)
 Gauss-broadening in eV      SIGMA  =   0.05


--------------------------------------------------------------------------------------------------------


  energy-cutoff  :      400.00
  volume of cell :     2620.42
      direct lattice vectors                 reciprocal lattice vectors
    12.300000191  0.000000000  0.000000000     0.081300812 -0.046939053  0.000000000
     6.150000804 10.652112223  0.000000000     0.000000000  0.093878095  0.000000000
     0.000000000  0.000000000 20.000000000     0.000000000  0.000000000  0.050000000

  length of vectors
    12.300000191 12.300000191 20.000000000     0.093878095  0.093878095  0.050000000


 
 old parameters found on file WAVECAR:
  energy-cutoff  :      400.00
  volume of cell :     2620.42
      direct lattice vectors                 reciprocal lattice vectors
    12.300000191  0.000000000  0.000000000     0.081300812 -0.046939053  0.000000000
     6.150000804 10.652112223  0.000000000     0.000000000  0.093878095  0.000000000
     0.000000000  0.000000000 20.000000000     0.000000000  0.000000000  0.050000000

  length of vectors

 
 k-points in units of 2pi/SCALE and weight: K-POINTS                                
   0.00000000  0.00000000  0.00000000       0.111
   0.02710027 -0.01564635  0.00000000       0.222
   0.00000000  0.03129270  0.00000000       0.222
   0.02710027  0.01564635  0.00000000       0.222
  -0.02710027  0.04693905  0.00000000       0.222
 
 k-points in reciprocal lattice and weights: K-POINTS                                
   0.00000000  0.00000000  0.00000000       0.111
   0.33333333  0.00000000  0.00000000       0.222
   0.00000000  0.33333333  0.00000000       0.222
   0.33333333  0.33333333  0.00000000       0.222
  -0.33333333  0.33333333  0.00000000       0.222
 
 position of ions in fractional coordinates (direct lattice) 
   0.00000000  0.00000000  0.41799748
   0.20000000  0.00000000  0.41799748
   0.40000000  0.00000000  0.41749748
   0.60000000  0.00000000  0.41799748
   0.80000000  0.00000000  0.41799748
   0.00000000  0.20000000  0.41799748
   0.20000000  0.20000000  0.41799748
   0.40000000  0.20000000  0.41799748
   0.60000000  0.20000000  0.41799748
   0.80000000  0.20000000  0.41799748
   0.00000000  0.40000000  0.41799748
   0.20000000  0.40000000  0.41799748
   0.40000000  0.40000000  0.41799748
   0.60000000  0.40000000  0.41799748
   0.80000000  0.40000000  0.41799748
   0.00000000  0.60000000  0.41799748
   0.20000000  0.60000000  0.41799748
   0.40000000  0.60000000  0.41799748
   0.60000000  0.60000000  0.41799748
   0.80000000  0.60000000  0.41799748
   0.00000000  0.80000000  0.41799748
   0.20000000  0.80000000  0.41799748
   0.40000000  0.80000000  0.41799748
   0.60000000  0.80000000  0.41799748
   0.80000000  0.80000000  0.41799748
   0.06666667  0.06666660  0.41800609
   0.26666667  0.06666660  0.41800609
   0.46666667  0.06666660  0.41800609
   0.66666667  0.06666660  0.41800609
   0.86666667  0.06666660  0.41800609
   0.06666667  0.26666660  0.41800609
   0.26666667  0.26666660  0.41800609
   0.46666667  0.26666660  0.41800609
   0.66666667  0.26666660  0.41800609
   0.86666667  0.26666660  0.41800609
   0.06666667  0.46666660  0.41800609
   0.26666667  0.46666660  0.41800609
   0.46666667  0.46666660  0.41800609
   0.66666667  0.46666660  0.41800609
   0.86666667  0.46666660  0.41800609
   0.06666667  0.66666660  0.41800609
   0.26666667  0.66666660  0.41800609
   0.46666667  0.66666660  0.41800609
   0.66666667  0.66666660  0.41800609
   0.86666667  0.66666660  0.41800609
   0.06666667  0.86666660  0.41800609
   0.26666667  0.86666660  0.41800609
   0.46666667  0.86666660  0.41800609
   0.66666667  0.86666660  0.41800609
   0.86666667  0.86666660  0.41800609
   0.40000000  0.40000000  0.46800609
 
 position of ions in cartesian coordinates  (Angst):
   0.00000000  0.00000000  8.35994958
   2.46000004  0.00000000  8.35994958
   4.92000008  0.00000000  8.34994958
   7.38000011  0.00000000  8.35994958
   9.84000015  0.00000000  8.35994958
   1.23000016  2.13042244  8.35994958
   3.69000020  2.13042244  8.35994958
   6.15000024  2.13042244  8.35994958
   8.61000028  2.13042244  8.35994958
  11.07000031  2.13042244  8.35994958
   2.46000032  4.26084489  8.35994958
   4.92000036  4.26084489  8.35994958
   7.38000040  4.26084489  8.35994958
   9.84000044  4.26084489  8.35994958
  12.30000047  4.26084489  8.35994958
   3.69000048  6.39126733  8.35994958
   6.15000052  6.39126733  8.35994958
   8.61000056  6.39126733  8.35994958
  11.07000060  6.39126733  8.35994958
  13.53000064  6.39126733  8.35994958
   4.92000064  8.52168978  8.35994958
   7.38000068  8.52168978  8.35994958
   9.84000072  8.52168978  8.35994958
  12.30000076  8.52168978  8.35994958
  14.76000080  8.52168978  8.35994958
   1.22999970  0.71014014  8.36012184
   3.68999974  0.71014014  8.36012184
   6.14999977  0.71014014  8.36012184
   8.60999981  0.71014014  8.36012184
  11.06999985  0.71014014  8.36012184
   2.45999986  2.84056258  8.36012184
   4.91999990  2.84056258  8.36012184
   7.37999994  2.84056258  8.36012184
   9.83999997  2.84056258  8.36012184
  12.30000001  2.84056258  8.36012184
   3.69000002  4.97098503  8.36012184
   6.15000006  4.97098503  8.36012184
   8.61000010  4.97098503  8.36012184
  11.07000013  4.97098503  8.36012184
  13.53000017  4.97098503  8.36012184
   4.92000018  7.10140747  8.36012184
   7.38000022  7.10140747  8.36012184
   9.84000026  7.10140747  8.36012184
  12.30000030  7.10140747  8.36012184
  14.76000033  7.10140747  8.36012184
   6.15000034  9.23182991  8.36012184
   8.61000038  9.23182991  8.36012184
  11.07000042  9.23182991  8.36012184
  13.53000046  9.23182991  8.36012184
  15.99000049  9.23182991  8.36012184
   7.38000040  4.26084489  9.36012184
 


--------------------------------------------------------------------------------------------------------


 k-point  1 :   0.0000 0.0000 0.0000  plane waves:   47639
 k-point  2 :   0.3333 0.0000 0.0000  plane waves:   47601
 k-point  3 :   0.0000 0.3333 0.0000  plane waves:   47601
 k-point  4 :   0.3333 0.3333 0.0000  plane waves:   47601
 k-point  5 :  -0.3333 0.3333 0.0000  plane waves:   47598

 maximum and minimum number of plane-waves per node :      5975     5928

 maximum number of plane-waves:     47639
 maximum index in each direction: 
   IXMAX=   20   IYMAX=   20   IZMAX=   32
   IXMIN=  -20   IYMIN=  -20   IZMIN=  -32


 parallel 3D FFT for wavefunctions:
    minimum data exchange during FFTs selected (reduces bandwidth)
 parallel 3D FFT for charge:
    minimum data exchange during FFTs selected (reduces bandwidth)


 total amount of memory used by VASP MPI-rank0    90113. kBytes
=======================================================================

   base      :      30000. kBytes
   nonl-proj :       8674. kBytes
   fftplans  :      26248. kBytes
   grid      :      14579. kBytes
   one-center:         21. kBytes
   wavefun   :      10591. kBytes
 
     INWAV:  cpu time    0.8553: real time    0.8558
 Broyden mixing: mesh for mixing (old mesh)
   NGX = 41   NGY = 41   NGZ = 65
  (NGX  =160   NGY  =160   NGZ  =280)
  gives a total of 109265 points

 initial charge density was supplied:
 number of electron     206.0000000 magnetization 
 keeping initial charge density in first step


--------------------------------------------------------------------------------------------------------


 Maximum index for augmentation-charges         1119 (set IRDMAX)


--------------------------------------------------------------------------------------------------------


 First call to EWALD:  gamma=   0.129
 Maximum number of real-space cells 3x 3x 2
 Maximum number of reciprocal cells 3x 3x 4

    FEWALD:  cpu time    0.0020: real time    0.0032


--------------------------------------- Iteration      1(   1)  ---------------------------------------


    POTLOK:  cpu time    0.1066: real time    0.1117
    SETDIJ:  cpu time    0.0835: real time    0.0852
     EDDAV:  cpu time    4.1147: real time    4.1186
       DOS:  cpu time    0.0004: real time    0.0004
    CHARGE:  cpu time    0.3916: real time    0.3925
    MIXING:  cpu time    0.0060: real time    0.0061
    --------------------------------------------
      LOOP:  cpu time    4.7029: real time    4.7146

 eigenvalue-minimisations  :  1356
 total energy-change (2. order) :-0.4532962E+03  (-0.2841125E+02)
 number of electron     206.0000000 magnetization 
 augmentation part        5.5093516 magnetization 

 Broyden mixing:
  rms(total) = 0.48975E-01    rms(broyden)= 0.48942E-01
  rms(prec ) = 0.50361E-01
  weight for this iteration     100.00

 Free energy of the ion-electron system (eV)
  ---------------------------------------------------
  alpha Z        PSCENC =        82.54348252
  Ewald energy   TEWEN  =     34516.47644952
  -Hartree energ DENC   =    -41034.79108420
  -exchange      EXHF   =         0.00000000
  -V(xc)+E(xc)   XCENC  =       721.37964918
  PAW double counting   =     22781.19595426   -22817.52509957
  entropy T*S    EENTRO =        -0.00051247
  eigenvalues    EBANDS =     -2491.19944386
  atomic energy  EATOM  =      7788.62438962
  Solvation  Ediel_sol  =         0.00000000
  ---------------------------------------------------
  free energy    TOTEN  =      -453.29621500 eV

  energy without entropy =     -453.29570253  energy(sigma->0) =     -453.29595876


--------------------------------------------------------------------------------------------------------




--------------------------------------- Iteration      1(   2)  ---------------------------------------


    POTLOK:  cpu time    0.1049: real time    0.1054
    SETDIJ:  cpu time    0.0804: real time    0.0817
    EDDIAG:  cpu time    0.8889: real time    0.8896
  RMM-DIIS:  cpu time    3.7953: real time    3.8014
    ORTHCH:  cpu time    0.0411: real time    0.0413
       DOS:  cpu time    0.0004: real time    0.0004
    CHARGE:  cpu time    0.3891: real time    0.3891
    MIXING:  cpu time    0.0060: real time    0.0060
    --------------------------------------------
      LOOP:  cpu time    5.3061: real time    5.3148

 eigenvalue-minimisations  :  1417
 total energy-change (2. order) :-0.9875574E+00  (-0.9897901E+00)
 number of electron     206.0000000 magnetization 
 augmentation part        5.5408878 magnetization 

 Broyden mixing:
  rms(total) = 0.19888E-01    rms(broyden)= 0.19832E-01
  rms(prec ) = 0.21229E-01
  weight for this iteration     100.00

 eigenvalues of (default mixing * dielectric matrix)
  average eigenvalue GAMMA=   0.7357
  0.7357

 Free energy of the ion-electron system (eV)
  ---------------------------------------------------
  alpha Z        PSCENC =        82.54348252
  Ewald energy   TEWEN  =     34516.47644952
  -Hartree energ DENC   =    -41032.25793681
  -exchange      EXHF   =         0.00000000
  -V(xc)+E(xc)   XCENC  =       721.27220068
  PAW double counting   =     22841.95924793   -22878.23702809
  entropy T*S    EENTRO =        -0.00009615
  eigenvalues    EBANDS =     -2494.66448162
  atomic energy  EATOM  =      7788.62438962
  Solvation  Ediel_sol  =         0.00000000
  ---------------------------------------------------
  free energy    TOTEN  =      -454.28377239 eV

  energy without entropy =     -454.28367625  energy(sigma->0) =     -454.28372432


--------------------------------------------------------------------------------------------------------




--------------------------------------- Iteration      1(   3)  ---------------------------------------


    POTLOK:  cpu time    0.1006: real time    0.1027
    SETDIJ:  cpu time    0.0809: real time    0.0822
    EDDIAG:  cpu time    0.8871: real time    0.8886
  RMM-DIIS:  cpu time    4.1359: real time    4.1410
    ORTHCH:  cpu time    0.0411: real time    0.0411
       DOS:  cpu time    0.0004: real time    0.0004
    CHARGE:  cpu time    0.3886: real time    0.3891
    MIXING:  cpu time    0.0052: real time    0.0052
    --------------------------------------------
      LOOP:  cpu time    5.6398: real time    5.6503

 eigenvalue-minimisations  :  1571
 total energy-change (2. order) :-0.5228493E-01  (-0.5848935E-01)
 number of electron     206.0000000 magnetization 
 augmentation part        5.5434259 magnetization 

 Broyden mixing:
  rms(total) = 0.15089E-01    rms(broyden)= 0.15075E-01
  rms(prec ) = 0.15623E-01
  weight for this iteration     100.00

 eigenvalues of (default mixing * dielectric matrix)
  average eigenvalue GAMMA=   0.6559
  0.6559  0.6559

 Free energy of the ion-electron system (eV)
  ---------------------------------------------------
  alpha Z        PSCENC =        82.54348252
  Ewald energy   TEWEN  =     34516.47644952
  -Hartree energ DENC   =    -41032.94861981
  -exchange      EXHF   =         0.00000000
  -V(xc)+E(xc)   XCENC  =       721.30441768
  PAW double counting   =     22830.87061208   -22867.16303739
  entropy T*S    EENTRO =        -0.00012518
  eigenvalues    EBANDS =     -2494.04362637
  atomic energy  EATOM  =      7788.62438962
  Solvation  Ediel_sol  =         0.00000000
  ---------------------------------------------------
  free energy    TOTEN  =      -454.33605733 eV

  energy without entropy =     -454.33593215  energy(sigma->0) =     -454.33599474


--------------------------------------------------------------------------------------------------------




--------------------------------------- Iteration      1(   4)  ---------------------------------------


    POTLOK:  cpu time    0.0978: real time    0.0988
    SETDIJ:  cpu time    0.0893: real time    0.0900
    EDDIAG:  cpu time    0.8819: real time    0.8825
  RMM-DIIS:  cpu time    4.1125: real time    4.1147
    ORTHCH:  cpu time    0.0490: real time    0.0490
       DOS:  cpu time    0.0004: real time    0.0004
    CHARGE:  cpu time    0.3882: real time    0.3882
    MIXING:  cpu time    0.0052: real time    0.0052
    --------------------------------------------
      LOOP:  cpu time    5.6243: real time    5.6287

 eigenvalue-minimisations  :  1567
 total energy-change (2. order) :-0.3889918E-02  (-0.4064081E-02)
 number of electron     206.0000000 magnetization 
 augmentation part        5.5459226 magnetization 

 Broyden mixing:
  rms(total) = 0.15228E-01    rms(broyden)= 0.15226E-01
  rms(prec ) = 0.15687E-01
  weight for this iteration     100.00

 eigenvalues of (default mixing * dielectric matrix)
  average eigenvalue GAMMA=   0.8674
  1.0348  1.0348  0.5327

 Free energy of the ion-electron system (eV)
  ---------------------------------------------------
  alpha Z        PSCENC =        82.54348252
  Ewald energy   TEWEN  =     34516.47644952
  -Hartree energ DENC   =    -41033.26568789
  -exchange      EXHF   =         0.00000000
  -V(xc)+E(xc)   XCENC  =       721.31864554
  PAW double counting   =     22822.72730414   -22859.02687887
  entropy T*S    EENTRO =        -0.00010964
  eigenvalues    EBANDS =     -2493.73754218
  atomic energy  EATOM  =      7788.62438962
  Solvation  Ediel_sol  =         0.00000000
  ---------------------------------------------------
  free energy    TOTEN  =      -454.33994724 eV

  energy without entropy =     -454.33983760  energy(sigma->0) =     -454.33989242


--------------------------------------------------------------------------------------------------------




--------------------------------------- Iteration      1(   5)  ---------------------------------------


    POTLOK:  cpu time    0.0989: real time    0.0990
    SETDIJ:  cpu time    0.0801: real time    0.0811
    EDDIAG:  cpu time    0.8858: real time    0.8860
  RMM-DIIS:  cpu time    4.0257: real time    4.0283
    ORTHCH:  cpu time    0.0417: real time    0.0417
       DOS:  cpu time    0.0003: real time    0.0003
    CHARGE:  cpu time    0.3903: real time    0.3909
    MIXING:  cpu time    0.0043: real time    0.0043
    --------------------------------------------
      LOOP:  cpu time    5.5272: real time    5.5315

 eigenvalue-minimisations  :  1535
 total energy-change (2. order) :-0.1451745E-03  (-0.3024839E-03)
 number of electron     206.0000000 magnetization 
 augmentation part        5.5452107 magnetization 

 Broyden mixing:
  rms(total) = 0.85204E-02    rms(broyden)= 0.85201E-02
  rms(prec ) = 0.87468E-02
  weight for this iteration     100.00

 eigenvalues of (default mixing * dielectric matrix)
  average eigenvalue GAMMA=   1.1325
  1.5200  1.5200  0.5686  0.9215

 Free energy of the ion-electron system (eV)
  ---------------------------------------------------
  alpha Z        PSCENC =        82.54348252
  Ewald energy   TEWEN  =     34516.47644952
  -Hartree energ DENC   =    -41033.92864739
  -exchange      EXHF   =         0.00000000
  -V(xc)+E(xc)   XCENC  =       721.34633406
  PAW double counting   =     22802.44653173   -22838.76052774
  entropy T*S    EENTRO =        -0.00011190
  eigenvalues    EBANDS =     -2493.08799284
  atomic energy  EATOM  =      7788.62438962
  Solvation  Ediel_sol  =         0.00000000
  ---------------------------------------------------
  free energy    TOTEN  =      -454.34009242 eV

  energy without entropy =     -454.33998052  energy(sigma->0) =     -454.34003647


--------------------------------------------------------------------------------------------------------




--------------------------------------- Iteration      1(   6)  ---------------------------------------


    POTLOK:  cpu time    0.1052: real time    0.1068
    SETDIJ:  cpu time    0.0799: real time    0.0812
    EDDIAG:  cpu time    0.8835: real time    0.8843
  RMM-DIIS:  cpu time    4.0076: real time    4.0100
    ORTHCH:  cpu time    0.0488: real time    0.0488
       DOS:  cpu time    0.0004: real time    0.0004
    CHARGE:  cpu time    0.3880: real time    0.3880
    MIXING:  cpu time    0.0048: real time    0.0048
    --------------------------------------------
      LOOP:  cpu time    5.5183: real time    5.5244

 eigenvalue-minimisations  :  1516
 total energy-change (2. order) :-0.3560623E-05  (-0.5223199E-04)
 number of electron     206.0000000 magnetization 
 augmentation part        5.5444798 magnetization 

 Broyden mixing:
  rms(total) = 0.10013E-02    rms(broyden)= 0.99799E-03
  rms(prec ) = 0.10421E-02
  weight for this iteration     100.00

 eigenvalues of (default mixing * dielectric matrix)
  average eigenvalue GAMMA=   1.2088
  2.0945  1.2052  1.2052  0.9741  0.5649

 Free energy of the ion-electron system (eV)
  ---------------------------------------------------
  alpha Z        PSCENC =        82.54348252
  Ewald energy   TEWEN  =     34516.47644952
  -Hartree energ DENC   =    -41034.70817349
  -exchange      EXHF   =         0.00000000
  -V(xc)+E(xc)   XCENC  =       721.37885019
  PAW double counting   =     22779.10144487   -22815.43148560
  entropy T*S    EENTRO =        -0.00011366
  eigenvalues    EBANDS =     -2492.32493995
  atomic energy  EATOM  =      7788.62438962
  Solvation  Ediel_sol  =         0.00000000
  ---------------------------------------------------
  free energy    TOTEN  =      -454.34009598 eV

  energy without entropy =     -454.33998232  energy(sigma->0) =     -454.34003915


--------------------------------------------------------------------------------------------------------




--------------------------------------- Iteration      1(   7)  ---------------------------------------


    POTLOK:  cpu time    0.0978: real time    0.0983
    SETDIJ:  cpu time    0.0789: real time    0.0789
    EDDIAG:  cpu time    0.8979: real time    0.8981
  RMM-DIIS:  cpu time    3.2250: real time    3.2273
    ORTHCH:  cpu time    0.0412: real time    0.0412
       DOS:  cpu time    0.0004: real time    0.0003
    CHARGE:  cpu time    0.4078: real time    0.4078
    MIXING:  cpu time    0.0045: real time    0.0045
    --------------------------------------------
      LOOP:  cpu time    4.7534: real time    4.7565

 eigenvalue-minimisations  :  1176
 total energy-change (2. order) :-0.1729196E-04  (-0.4258714E-05)
 number of electron     206.0000000 magnetization 
 augmentation part        5.5442306 magnetization 

 Broyden mixing:
  rms(total) = 0.13467E-02    rms(broyden)= 0.13461E-02
  rms(prec ) = 0.13986E-02
  weight for this iteration     100.00

 eigenvalues of (default mixing * dielectric matrix)
  average eigenvalue GAMMA=   1.2919
  2.2058  1.5069  1.5069  0.9849  0.9849  0.5619

 Free energy of the ion-electron system (eV)
  ---------------------------------------------------
  alpha Z        PSCENC =        82.54348252
  Ewald energy   TEWEN  =     34516.47644952
  -Hartree energ DENC   =    -41034.88137015
  -exchange      EXHF   =         0.00000000
  -V(xc)+E(xc)   XCENC  =       721.38567678
  PAW double counting   =     22775.90872446   -22812.24142813
  entropy T*S    EENTRO =        -0.00011483
  eigenvalues    EBANDS =     -2492.15592306
  atomic energy  EATOM  =      7788.62438962
  Solvation  Ediel_sol  =         0.00000000
  ---------------------------------------------------
  free energy    TOTEN  =      -454.34011327 eV

  energy without entropy =     -454.33999844  energy(sigma->0) =     -454.34005586


--------------------------------------------------------------------------------------------------------




--------------------------------------- Iteration      1(   8)  ---------------------------------------


    POTLOK:  cpu time    0.0986: real time    0.0987
    SETDIJ:  cpu time    0.0786: real time    0.0786
    EDDIAG:  cpu time    0.9024: real time    0.9031
  RMM-DIIS:  cpu time    2.6879: real time    2.6891
    ORTHCH:  cpu time    0.0410: real time    0.0410
       DOS:  cpu time    0.0003: real time    0.0003
    --------------------------------------------
      LOOP:  cpu time    3.8087: real time    3.8108

 eigenvalue-minimisations  :   937
 total energy-change (2. order) :-0.2904932E-05  (-0.9116496E-06)
 number of electron     206.0000000 magnetization 
 augmentation part        5.5442306 magnetization 

 Free energy of the ion-electron system (eV)
  ---------------------------------------------------
  alpha Z        PSCENC =        82.54348252
  Ewald energy   TEWEN  =     34516.47644952
  -Hartree energ DENC   =    -41034.75936478
  -exchange      EXHF   =         0.00000000
  -V(xc)+E(xc)   XCENC  =       721.38005840
  PAW double counting   =     22780.41547473   -22816.74495393
  entropy T*S    EENTRO =        -0.00011451
  eigenvalues    EBANDS =     -2492.27553774
  atomic energy  EATOM  =      7788.62438962
  Solvation  Ediel_sol  =         0.00000000
  ---------------------------------------------------
  free energy    TOTEN  =      -454.34011618 eV

  energy without entropy =     -454.34000167  energy(sigma->0) =     -454.34005892


--------------------------------------------------------------------------------------------------------




 average (electrostatic) potential at core
  the test charge radii are     0.6991  0.7215
  (the norm of the test charge is              1.0000)
       1 -58.2605       2 -58.2604       3 -58.2039       4 -58.0583       5 -58.2040
       6 -58.2605       7 -58.2765       8 -58.1338       9 -58.1331      10 -58.2762
      11 -58.2040      12 -58.1335      13 -60.6874      14 -58.1335      15 -58.2040
      16 -58.0586      17 -58.1334      18 -58.1334      19 -58.0586      20 -58.0652
      21 -58.2039      22 -58.2763      23 -58.2040      24 -58.0652      25 -58.0654
      26 -58.3822      27 -58.2929      28 -58.2225      29 -58.2220      30 -58.2928
      31 -58.2929      32 -58.3150      33 -58.8124      34 -58.3148      35 -58.2929
      36 -58.2221      37 -58.8119      38 -58.8120      39 -58.2221      40 -58.2234
      41 -58.2220      42 -58.3149      43 -58.2221      44 -58.1642      45 -58.1642
      46 -58.2929      47 -58.2929      48 -58.2236      49 -58.1642      50 -58.2235
      51 -81.5751
 
 
 
 E-fermi :  -3.0174     XC(G=0):  -2.2135     alpha+bet : -1.9409


 k-point     1 :       0.0000    0.0000    0.0000
  band No.  band energies     occupation 
      1     -31.7407      2.00000
      2     -22.2712      2.00000
      3     -21.5033      2.00000
      4     -21.5033      2.00000
      5     -21.3946      2.00000
      6     -21.3946      2.00000
      7     -21.3940      2.00000
      8     -20.8745      2.00000
      9     -19.8769      2.00000
     10     -19.8769      2.00000
     11     -19.5494      2.00000
     12     -19.5494      2.00000
     13     -19.5392      2.00000
     14     -19.1915      2.00000
     15     -18.9012      2.00000
     16     -18.9012      2.00000
     17     -18.6438      2.00000
     18     -18.6433      2.00000
     19     -18.6432      2.00000
     20     -17.8845      2.00000
     21     -17.0217      2.00000
     22     -17.0217      2.00000
     23     -16.4781      2.00000
     24     -16.4584      2.00000
     25     -16.4583      2.00000
     26     -16.0498      2.00000
     27     -15.9969      2.00000
     28     -15.9969      2.00000
     29     -15.4977      2.00000
     30     -15.4977      2.00000
     31     -15.4932      2.00000
     32     -15.0899      2.00000
     33     -14.6296      2.00000
     34     -14.6296      2.00000
     35     -14.1500      2.00000
     36     -14.1500      2.00000
     37     -14.1433      2.00000
     38     -13.9650      2.00000
     39     -12.9914      2.00000
     40     -12.9914      2.00000
     41     -12.0314      2.00000
     42     -11.7651      2.00000
     43     -11.7651      2.00000
     44     -11.7619      2.00000
     45     -11.6906      2.00000
     46     -11.6905      2.00000
     47     -11.6519      2.00000
     48     -11.6500      2.00000
     49     -11.6499      2.00000
     50     -11.6489      2.00000
     51     -10.8024      2.00000
     52     -10.8021      2.00000
     53     -10.4289      2.00000
     54     -10.3343      2.00000
     55     -10.2890      2.00000
     56     -10.2890      2.00000
     57     -10.2708      2.00000
     58     -10.0784      2.00000
     59      -9.6868      2.00000
     60      -9.6854      2.00000
     61      -9.3257      2.00000
     62      -9.3252      2.00000
     63      -9.3004      2.00000
     64      -9.2800      2.00000
     65      -9.2790      2.00000
     66      -9.0463      2.00000
     67      -9.0050      2.00000
     68      -9.0050      2.00000
     69      -8.9488      2.00000
     70      -8.9409      2.00000
     71      -8.9407      2.00000
     72      -8.9399      2.00000
     73      -8.9193      2.00000
     74      -8.9193      2.00000
     75      -8.8931      2.00000
     76      -8.4375      2.00000
     77      -7.8019      2.00000
     78      -7.7999      2.00000
     79      -7.3253      2.00000
     80      -7.3242      2.00000
     81      -7.3106      2.00000
     82      -7.3022      2.00000
     83      -7.3008      2.00000
     84      -7.2993      2.00000
     85      -7.1610      2.00000
     86      -7.1609      2.00000
     87      -7.1551      2.00000
     88      -6.7516      2.00000
     89      -6.5077      2.00000
     90      -6.5054      2.00000
     91      -6.2671      2.00000
     92      -6.2466      2.00000
     93      -6.2465      2.00000
     94      -5.9240      2.00000
     95      -5.9231      2.00000
     96      -5.1957      2.00000
     97      -4.7643      2.00000
     98      -4.7637      2.00000
     99      -4.2708      2.00000
    100      -4.2665      2.00000
    101      -4.2665      2.00000
    102      -3.2150      2.00000
    103      -3.2147      2.00000
    104      -2.9164      0.00429
    105      -1.4615      0.00000
    106      -1.4573      0.00000
    107      -1.4572      0.00000
    108      -0.9914      0.00000
    109      -0.9911      0.00000
    110      -0.5430      0.00000
    111       0.4169      0.00000
    112       0.4215      0.00000
    113       0.4217      0.00000
    114       0.5621      0.00000
    115       0.8431      0.00000
    116       0.8434      0.00000
    117       1.2927      0.00000
    118       1.3392      0.00000
    119       1.6750      0.00000
    120       1.8027      0.00000
    121       1.8030      0.00000
    122       1.8031      0.00000
    123       1.8266      0.00000
    124       1.8270      0.00000
    125       2.0307      0.00000
    126       2.1765      0.00000
    127       2.1793      0.00000
    128       2.1793      0.00000
    129       2.3469      0.00000
    130       2.3472      0.00000
    131       2.6260      0.00000
    132       2.6412      0.00000

 k-point     2 :       0.3333    0.0000    0.0000
  band No.  band energies     occupation 
      1     -31.7408      2.00000
      2     -22.1892      2.00000
      3     -21.8695      2.00000
      4     -21.6615      2.00000
      5     -21.4548      2.00000
      6     -21.0349      2.00000
      7     -20.8974      2.00000
      8     -20.7277      2.00000
      9     -20.4204      2.00000
     10     -20.1624      2.00000
     11     -19.7872      2.00000
     12     -19.6994      2.00000
     13     -19.3266      2.00000
     14     -19.2431      2.00000
     15     -19.0619      2.00000
     16     -18.5930      2.00000
     17     -18.4582      2.00000
     18     -18.1216      2.00000
     19     -18.0632      2.00000
     20     -17.5911      2.00000
     21     -17.4981      2.00000
     22     -17.3010      2.00000
     23     -17.2768      2.00000
     24     -16.8517      2.00000
     25     -16.6587      2.00000
     26     -16.1764      2.00000
     27     -15.9782      2.00000
     28     -15.8479      2.00000
     29     -15.2986      2.00000
     30     -15.1701      2.00000
     31     -15.1345      2.00000
     32     -14.8851      2.00000
     33     -14.7820      2.00000
     34     -14.4784      2.00000
     35     -14.4563      2.00000
     36     -13.7674      2.00000
     37     -13.7602      2.00000
     38     -13.1964      2.00000
     39     -13.0897      2.00000
     40     -12.9345      2.00000
     41     -12.9047      2.00000
     42     -12.5854      2.00000
     43     -12.5503      2.00000
     44     -12.3903      2.00000
     45     -12.0223      2.00000
     46     -11.6637      2.00000
     47     -11.4476      2.00000
     48     -11.2964      2.00000
     49     -11.1220      2.00000
     50     -10.9145      2.00000
     51     -10.8503      2.00000
     52     -10.5845      2.00000
     53     -10.5330      2.00000
     54     -10.2858      2.00000
     55     -10.2371      2.00000
     56     -10.1616      2.00000
     57     -10.0494      2.00000
     58      -9.8529      2.00000
     59      -9.8205      2.00000
     60      -9.6548      2.00000
     61      -9.6082      2.00000
     62      -9.5607      2.00000
     63      -9.5266      2.00000
     64      -9.3712      2.00000
     65      -9.3403      2.00000
     66      -9.2601      2.00000
     67      -9.1759      2.00000
     68      -9.0998      2.00000
     69      -9.0828      2.00000
     70      -8.8655      2.00000
     71      -8.7123      2.00000
     72      -8.6643      2.00000
     73      -8.5050      2.00000
     74      -8.4028      2.00000
     75      -8.2868      2.00000
     76      -8.1343      2.00000
     77      -8.0952      2.00000
     78      -8.0654      2.00000
     79      -7.9718      2.00000
     80      -7.8089      2.00000
     81      -7.6197      2.00000
     82      -7.3609      2.00000
     83      -7.3362      2.00000
     84      -7.2662      2.00000
     85      -7.1971      2.00000
     86      -6.9203      2.00000
     87      -6.8730      2.00000
     88      -6.6939      2.00000
     89      -6.5917      2.00000
     90      -6.3490      2.00000
     91      -6.1860      2.00000
     92      -6.0726      2.00000
     93      -5.9212      2.00000
     94      -5.7398      2.00000
     95      -5.6409      2.00000
     96      -5.3227      2.00000
     97      -5.1152      2.00000
     98      -4.9701      2.00000
     99      -4.9228      2.00000
    100      -4.2700      2.00000
    101      -4.1693      2.00000
    102      -3.3368      2.00000
    103      -3.1370      1.99928
    104      -2.8042      0.00000
    105      -1.5914      0.00000
    106      -1.4237      0.00000
    107      -0.8401      0.00000
    108      -0.8192      0.00000
    109      -0.7062      0.00000
    110      -0.6681      0.00000
    111      -0.1288      0.00000
    112      -0.0062      0.00000
    113       0.2927      0.00000
    114       0.7048      0.00000
    115       0.7268      0.00000
    116       1.1015      0.00000
    117       1.1732      0.00000
    118       1.3638      0.00000
    119       1.4623      0.00000
    120       1.5378      0.00000
    121       1.5700      0.00000
    122       1.6377      0.00000
    123       1.8242      0.00000
    124       1.9117      0.00000
    125       2.0388      0.00000
    126       2.2212      0.00000
    127       2.2650      0.00000
    128       2.3287      0.00000
    129       2.3393      0.00000
    130       2.3965      0.00000
    131       2.4578      0.00000
    132       2.7956      0.00000

 k-point     3 :       0.0000    0.3333    0.0000
  band No.  band energies     occupation 
      1     -31.7408      2.00000
      2     -22.1892      2.00000
      3     -21.8695      2.00000
      4     -21.6615      2.00000
      5     -21.4548      2.00000
      6     -21.0349      2.00000
      7     -20.8974      2.00000
      8     -20.7277      2.00000
      9     -20.4203      2.00000
     10     -20.1625      2.00000
     11     -19.7872      2.00000
     12     -19.6994      2.00000
     13     -19.3265      2.00000
     14     -19.2431      2.00000
     15     -19.0620      2.00000
     16     -18.5930      2.00000
     17     -18.4582      2.00000
     18     -18.1216      2.00000
     19     -18.0632      2.00000
     20     -17.5911      2.00000
     21     -17.4981      2.00000
     22     -17.3010      2.00000
     23     -17.2768      2.00000
     24     -16.8517      2.00000
     25     -16.6587      2.00000
     26     -16.1764      2.00000
     27     -15.9782      2.00000
     28     -15.8479      2.00000
     29     -15.2986      2.00000
     30     -15.1700      2.00000
     31     -15.1345      2.00000
     32     -14.8851      2.00000
     33     -14.7820      2.00000
     34     -14.4784      2.00000
     35     -14.4562      2.00000
     36     -13.7674      2.00000
     37     -13.7602      2.00000
     38     -13.1964      2.00000
     39     -13.0897      2.00000
     40     -12.9345      2.00000
     41     -12.9047      2.00000
     42     -12.5854      2.00000
     43     -12.5502      2.00000
     44     -12.3903      2.00000
     45     -12.0224      2.00000
     46     -11.6637      2.00000
     47     -11.4477      2.00000
     48     -11.2964      2.00000
     49     -11.1220      2.00000
     50     -10.9145      2.00000
     51     -10.8503      2.00000
     52     -10.5845      2.00000
     53     -10.5330      2.00000
     54     -10.2857      2.00000
     55     -10.2371      2.00000
     56     -10.1615      2.00000
     57     -10.0493      2.00000
     58      -9.8532      2.00000
     59      -9.8206      2.00000
     60      -9.6545      2.00000
     61      -9.6082      2.00000
     62      -9.5610      2.00000
     63      -9.5268      2.00000
     64      -9.3711      2.00000
     65      -9.3405      2.00000
     66      -9.2592      2.00000
     67      -9.1759      2.00000
     68      -9.0997      2.00000
     69      -9.0827      2.00000
     70      -8.8649      2.00000
     71      -8.7133      2.00000
     72      -8.6650      2.00000
     73      -8.5048      2.00000
     74      -8.4026      2.00000
     75      -8.2877      2.00000
     76      -8.1326      2.00000
     77      -8.0947      2.00000
     78      -8.0671      2.00000
     79      -7.9717      2.00000
     80      -7.8074      2.00000
     81      -7.6210      2.00000
     82      -7.3604      2.00000
     83      -7.3367      2.00000
     84      -7.2662      2.00000
     85      -7.1975      2.00000
     86      -6.9203      2.00000
     87      -6.8738      2.00000
     88      -6.6919      2.00000
     89      -6.5911      2.00000
     90      -6.3493      2.00000
     91      -6.1859      2.00000
     92      -6.0731      2.00000
     93      -5.9216      2.00000
     94      -5.7397      2.00000
     95      -5.6413      2.00000
     96      -5.3228      2.00000
     97      -5.1151      2.00000
     98      -4.9702      2.00000
     99      -4.9227      2.00000
    100      -4.2700      2.00000
    101      -4.1691      2.00000
    102      -3.3368      2.00000
    103      -3.1370      1.99929
    104      -2.8040      0.00000
    105      -1.5914      0.00000
    106      -1.4239      0.00000
    107      -0.8401      0.00000
    108      -0.8193      0.00000
    109      -0.7062      0.00000
    110      -0.6681      0.00000
    111      -0.1285      0.00000
    112      -0.0064      0.00000
    113       0.2927      0.00000
    114       0.7043      0.00000
    115       0.7270      0.00000
    116       1.0981      0.00000
    117       1.1769      0.00000
    118       1.3645      0.00000
    119       1.4629      0.00000
    120       1.5373      0.00000
    121       1.5706      0.00000
    122       1.6372      0.00000
    123       1.8250      0.00000
    124       1.9124      0.00000
    125       2.0401      0.00000
    126       2.2257      0.00000
    127       2.2672      0.00000
    128       2.3353      0.00000
    129       2.4251      0.00000
    130       2.7298      0.00000
    131       3.2550      0.00000
    132       3.6245      0.00000

 k-point     4 :       0.3333    0.3333    0.0000
  band No.  band energies     occupation 
      1     -31.7408      2.00000
      2     -22.1892      2.00000
      3     -21.8695      2.00000
      4     -21.6615      2.00000
      5     -21.4548      2.00000
      6     -21.0349      2.00000
      7     -20.8974      2.00000
      8     -20.7277      2.00000
      9     -20.4203      2.00000
     10     -20.1625      2.00000
     11     -19.7872      2.00000
     12     -19.6994      2.00000
     13     -19.3266      2.00000
     14     -19.2431      2.00000
     15     -19.0620      2.00000
     16     -18.5930      2.00000
     17     -18.4582      2.00000
     18     -18.1216      2.00000
     19     -18.0632      2.00000
     20     -17.5911      2.00000
     21     -17.4981      2.00000
     22     -17.3010      2.00000
     23     -17.2768      2.00000
     24     -16.8517      2.00000
     25     -16.6587      2.00000
     26     -16.1764      2.00000
     27     -15.9782      2.00000
     28     -15.8479      2.00000
     29     -15.2986      2.00000
     30     -15.1701      2.00000
     31     -15.1345      2.00000
     32     -14.8851      2.00000
     33     -14.7820      2.00000
     34     -14.4784      2.00000
     35     -14.4562      2.00000
     36     -13.7674      2.00000
     37     -13.7602      2.00000
     38     -13.1964      2.00000
     39     -13.0896      2.00000
     40     -12.9345      2.00000
     41     -12.9047      2.00000
     42     -12.5854      2.00000
     43     -12.5503      2.00000
     44     -12.3903      2.00000
     45     -12.0224      2.00000
     46     -11.6637      2.00000
     47     -11.4477      2.00000
     48     -11.2964      2.00000
     49     -11.1220      2.00000
     50     -10.9146      2.00000
     51     -10.8503      2.00000
     52     -10.5845      2.00000
     53     -10.5330      2.00000
     54     -10.2857      2.00000
     55     -10.2371      2.00000
     56     -10.1615      2.00000
     57     -10.0493      2.00000
     58      -9.8533      2.00000
     59      -9.8206      2.00000
     60      -9.6548      2.00000
     61      -9.6078      2.00000
     62      -9.5608      2.00000
     63      -9.5271      2.00000
     64      -9.3713      2.00000
     65      -9.3397      2.00000
     66      -9.2595      2.00000
     67      -9.1759      2.00000
     68      -9.0998      2.00000
     69      -9.0832      2.00000
     70      -8.8640      2.00000
     71      -8.7138      2.00000
     72      -8.6649      2.00000
     73      -8.5046      2.00000
     74      -8.4028      2.00000
     75      -8.2876      2.00000
     76      -8.1339      2.00000
     77      -8.0952      2.00000
     78      -8.0659      2.00000
     79      -7.9715      2.00000
     80      -7.8073      2.00000
     81      -7.6210      2.00000
     82      -7.3600      2.00000
     83      -7.3368      2.00000
     84      -7.2668      2.00000
     85      -7.1969      2.00000
     86      -6.9204      2.00000
     87      -6.8741      2.00000
     88      -6.6920      2.00000
     89      -6.5912      2.00000
     90      -6.3491      2.00000
     91      -6.1856      2.00000
     92      -6.0733      2.00000
     93      -5.9215      2.00000
     94      -5.7399      2.00000
     95      -5.6412      2.00000
     96      -5.3225      2.00000
     97      -5.1154      2.00000
     98      -4.9703      2.00000
     99      -4.9228      2.00000
    100      -4.2701      2.00000
    101      -4.1689      2.00000
    102      -3.3368      2.00000
    103      -3.1370      1.99928
    104      -2.8039      0.00000
    105      -1.5914      0.00000
    106      -1.4240      0.00000
    107      -0.8401      0.00000
    108      -0.8193      0.00000
    109      -0.7062      0.00000
    110      -0.6680      0.00000
    111      -0.1288      0.00000
    112      -0.0062      0.00000
    113       0.2927      0.00000
    114       0.7047      0.00000
    115       0.7270      0.00000
    116       1.0988      0.00000
    117       1.1765      0.00000
    118       1.3656      0.00000
    119       1.4639      0.00000
    120       1.5580      0.00000
    121       1.5739      0.00000
    122       1.7188      0.00000
    123       1.8261      0.00000
    124       2.1700      0.00000
    125       2.3346      0.00000
    126       2.3947      0.00000
    127       2.6130      0.00000
    128       2.7601      0.00000
    129       2.8346      0.00000
    130       3.2027      0.00000
    131       3.5953      0.00000
    132       4.1805      0.00000

 k-point     5 :      -0.3333    0.3333    0.0000
  band No.  band energies     occupation 
      1     -31.7409      2.00000
      2     -22.0807      2.00000
      3     -22.0078      2.00000
      4     -21.8019      2.00000
      5     -21.1723      2.00000
      6     -21.1507      2.00000
      7     -20.8676      2.00000
      8     -20.4134      2.00000
      9     -20.3391      2.00000
     10     -20.1722      2.00000
     11     -20.1506      2.00000
     12     -20.1432      2.00000
     13     -19.5672      2.00000
     14     -18.8266      2.00000
     15     -18.6749      2.00000
     16     -18.3727      2.00000
     17     -18.3491      2.00000
     18     -18.3366      2.00000
     19     -17.9303      2.00000
     20     -17.8018      2.00000
     21     -17.6018      2.00000
     22     -17.2617      2.00000
     23     -17.1534      2.00000
     24     -17.1210      2.00000
     25     -16.5434      2.00000
     26     -16.4379      2.00000
     27     -16.2846      2.00000
     28     -15.8088      2.00000
     29     -15.6292      2.00000
     30     -15.1757      2.00000
     31     -14.9698      2.00000
     32     -14.6528      2.00000
     33     -13.9604      2.00000
     34     -13.9396      2.00000
     35     -13.9248      2.00000
     36     -13.8739      2.00000
     37     -13.8642      2.00000
     38     -13.7923      2.00000
     39     -13.6749      2.00000
     40     -13.4951      2.00000
     41     -13.0380      2.00000
     42     -12.4748      2.00000
     43     -12.2542      2.00000
     44     -12.0717      2.00000
     45     -11.8237      2.00000
     46     -11.7735      2.00000
     47     -11.5635      2.00000
     48     -11.5459      2.00000
     49     -11.5230      2.00000
     50     -10.9297      2.00000
     51     -10.8182      2.00000
     52     -10.5306      2.00000
     53     -10.2062      2.00000
     54     -10.2041      2.00000
     55     -10.1944      2.00000
     56     -10.0950      2.00000
     57     -10.0528      2.00000
     58     -10.0222      2.00000
     59      -9.9031      2.00000
     60      -9.7516      2.00000
     61      -9.7483      2.00000
     62      -9.5645      2.00000
     63      -9.4410      2.00000
     64      -9.4076      2.00000
     65      -9.1990      2.00000
     66      -9.0470      2.00000
     67      -9.0351      2.00000
     68      -8.9015      2.00000
     69      -8.8838      2.00000
     70      -8.6880      2.00000
     71      -8.6375      2.00000
     72      -8.6356      2.00000
     73      -8.6243      2.00000
     74      -8.5832      2.00000
     75      -8.3753      2.00000
     76      -8.2526      2.00000
     77      -8.1650      2.00000
     78      -8.0348      2.00000
     79      -7.9838      2.00000
     80      -7.8798      2.00000
     81      -7.8581      2.00000
     82      -7.8550      2.00000
     83      -7.2250      2.00000
     84      -7.1851      2.00000
     85      -7.1280      2.00000
     86      -6.8855      2.00000
     87      -6.7214      2.00000
     88      -6.6128      2.00000
     89      -6.4603      2.00000
     90      -6.2684      2.00000
     91      -6.1031      2.00000
     92      -5.9168      2.00000
     93      -5.9113      2.00000
     94      -5.8979      2.00000
     95      -5.4524      2.00000
     96      -5.4255      2.00000
     97      -5.1223      2.00000
     98      -5.0142      2.00000
     99      -4.9805      2.00000
    100      -4.9579      2.00000
    101      -3.7329      2.00000
    102      -3.4585      2.00000
    103      -3.2802      2.00000
    104      -2.3873      0.00000
    105      -2.2243      0.00000
    106      -0.9287      0.00000
    107      -0.8822      0.00000
    108      -0.8679      0.00000
    109      -0.5386      0.00000
    110      -0.2641      0.00000
    111      -0.2113      0.00000
    112       0.2517      0.00000
    113       0.2581      0.00000
    114       0.2602      0.00000
    115       0.5984      0.00000
    116       0.7924      0.00000
    117       0.9479      0.00000
    118       0.9744      0.00000
    119       1.0615      0.00000
    120       1.7337      0.00000
    121       1.7448      0.00000
    122       1.7669      0.00000
    123       1.8256      0.00000
    124       2.1124      0.00000
    125       2.1169      0.00000
    126       2.1210      0.00000
    127       2.2464      0.00000
    128       2.2482      0.00000
    129       2.3620      0.00000
    130       2.9988      0.00000
    131       3.0116      0.00000
    132       3.0359      0.00000


--------------------------------------------------------------------------------------------------------


 soft charge-density along one line, spin component           1
         0         1         2         3         4         5         6         7         8         9
 total charge-density along one line
 
 pseudopotential strength for first ion, spin component:           1
 10.222  13.594   0.000  -0.000   0.000  -0.000   0.000  -0.000
 13.594  18.076   0.000  -0.000   0.000  -0.000   0.000  -0.000
  0.000   0.000  -4.352  -0.000  -0.000   8.513   0.000   0.000
 -0.000  -0.000  -0.000  -4.344  -0.000   0.000   8.502   0.000
  0.000   0.000  -0.000  -0.000  -4.352   0.000   0.000   8.513
 -0.000  -0.000   8.513   0.000   0.000 -18.787  -0.000  -0.000
  0.000   0.000   0.000   8.502   0.000  -0.000 -18.776  -0.000
 -0.000  -0.000   0.000   0.000   8.513  -0.000  -0.000 -18.787
 total augmentation occupancy for first ion, spin component:           1
  8.358  -3.741   0.001   0.000   0.003   0.000   0.000   0.001
 -3.741   1.730  -0.002  -0.000  -0.003  -0.000   0.000  -0.000
  0.001  -0.002   1.840  -0.000  -0.001   0.174   0.000   0.000
  0.000  -0.000  -0.000   1.223  -0.000   0.000   0.078   0.000
  0.003  -0.003  -0.001  -0.000   1.839   0.000   0.000   0.174
  0.000  -0.000   0.174   0.000   0.000   0.018   0.000   0.000
  0.000   0.000   0.000   0.078   0.000   0.000   0.005   0.000
  0.001  -0.000   0.000   0.000   0.174   0.000   0.000   0.018


------------------------ aborting loop because EDIFF is reached ----------------------------------------


    CHARGE:  cpu time    0.4074: real time    0.4074
    FORLOC:  cpu time    0.0279: real time    0.0279
    FORNL :  cpu time    1.9657: real time    1.9668
    STRESS:  cpu time    3.2945: real time    3.2964
    FORCOR:  cpu time    0.1210: real time    0.1213
    FORHAR:  cpu time    0.0487: real time    0.0487
    MIXING:  cpu time    0.0037: real time    0.0037
    OFIELD:  cpu time    0.0001: real time    0.0001

  FORCE on cell =-STRESS in cart. coord.  units (eV):
  Direction    XX          YY          ZZ          XY          YZ          ZX
  --------------------------------------------------------------------------------------
  Alpha Z    82.54348    82.54348    82.54348
  Ewald   41234.41908 41234.36659-47952.32988    -0.03702     0.05367     0.03099
  Hartree 40516.66672 40516.62231-39998.52523    -0.03475     0.04860     0.02878
  E(xc)    -777.14860  -777.14865  -804.22645     0.00003     0.00001    -0.00000
  Local  -83988.74480-83988.64676 85337.22195     0.07223    -0.10185    -0.05998
  n-local  -203.93818  -203.93663  -194.69656     0.00041     0.00010     0.00009
  augment   -12.37972   -12.37939   -14.04634    -0.00029    -0.00004     0.00002
  Kinetic  3164.14007  3164.13140  3596.32015    -0.00521    -0.00178     0.00162
  Fock        0.00000     0.00000     0.00000     0.00000     0.00000     0.00000
  -------------------------------------------------------------------------------------
  Total      15.55805    15.55237    52.26113    -0.00461    -0.00128     0.00153
  in kB       9.51251     9.50903    31.95351    -0.00282    -0.00078     0.00094
  external pressure =       16.99 kB  Pullay stress =        0.00 kB


 VOLUME and BASIS-vectors are now :
 -----------------------------------------------------------------------------
  energy-cutoff  :      400.00
  volume of cell :     2620.42
      direct lattice vectors                 reciprocal lattice vectors
    12.300000191  0.000000000  0.000000000     0.081300812 -0.046939053  0.000000000
     6.150000804 10.652112223  0.000000000     0.000000000  0.093878095  0.000000000
     0.000000000  0.000000000 20.000000000     0.000000000  0.000000000  0.050000000

  length of vectors
    12.300000191 12.300000191 20.000000000     0.093878095  0.093878095  0.050000000


 FORCES acting on ions
    electron-ion (+dipol)            ewald-force                    non-local-force                 convergence-correction
 -----------------------------------------------------------------------------------------------
   -.148E+01 -.854E+00 0.277E+01   0.135E+01 0.778E+00 -.276E+01   0.853E-01 0.492E-01 -.132E-02   -.658E-04 -.107E-04 0.718E-04
   0.148E+01 -.854E+00 0.263E+01   -.135E+01 0.778E+00 -.263E+01   -.854E-01 0.491E-01 0.132E-01   0.327E-03 -.126E-03 -.141E-03
   0.369E+01 0.641E+01 0.852E+01   -.374E+01 -.648E+01 -.853E+01   -.113E+00 0.775E-01 0.129E+00   -.270E-03 -.991E-04 -.152E-02
   0.237E-02 0.129E+02 0.464E+01   -.993E-03 -.131E+02 -.478E+01   -.393E-03 0.134E-01 0.124E+00   -.228E-03 -.133E-04 -.184E-03
   -.370E+01 0.642E+01 0.379E+01   0.374E+01 -.649E+01 -.374E+01   0.114E+00 0.770E-01 -.724E-01   0.123E-03 0.935E-04 0.665E-04
   -.126E-03 0.171E+01 0.276E+01   0.343E-04 -.156E+01 -.275E+01   0.306E-04 -.984E-01 0.639E-03   0.935E-04 -.190E-04 -.477E-05
   0.117E+02 0.673E+01 0.472E+01   -.113E+02 -.655E+01 -.478E+01   0.108E+00 0.625E-01 0.650E-01   -.172E-03 -.273E-03 -.166E-03
   0.209E+02 0.362E+02 0.185E+02   -.214E+02 -.371E+02 -.189E+02   0.638E+00 0.654E+00 0.560E+00   -.109E-03 -.238E-03 -.152E-03
   -.209E+02 0.362E+02 0.186E+02   0.214E+02 -.371E+02 -.190E+02   -.638E+00 0.654E+00 0.547E+00   0.141E-03 0.384E-04 0.133E-05
   -.117E+02 0.673E+01 0.487E+01   0.113E+02 -.655E+01 -.492E+01   -.108E+00 0.623E-01 0.524E-01   -.170E-03 0.100E-04 0.565E-04
   0.741E+01 -.773E-02 0.379E+01   -.749E+01 -.154E-03 -.374E+01   0.100E-01 -.137E+00 -.722E-01   -.139E-04 0.265E-03 0.827E-04
   0.418E+02 -.414E-01 0.186E+02   -.428E+02 -.211E-03 -.190E+02   0.885E+00 0.226E+00 0.545E+00   -.185E-03 0.310E-03 -.846E-04
   -.275E-03 0.176E-02 0.291E+03   -.748E-04 -.154E-03 -.346E+03   0.159E-03 -.314E-03 0.713E+01   -.247E-03 -.204E-04 0.193E-03
   -.418E+02 -.405E-01 0.186E+02   0.428E+02 -.110E-03 -.190E+02   -.886E+00 0.226E+00 0.545E+00   0.767E-04 -.226E-03 -.197E-04
   -.741E+01 -.791E-02 0.379E+01   0.749E+01 -.110E-03 -.375E+01   -.998E-02 -.137E+00 -.714E-01   0.159E-03 0.247E-03 0.830E-04
   0.111E+02 -.644E+01 0.479E+01   -.113E+02 0.655E+01 -.492E+01   0.117E-01 -.678E-02 0.112E+00   -.211E-04 -.157E-04 0.273E-04
   0.210E+02 -.362E+02 0.186E+02   -.214E+02 0.371E+02 -.190E+02   0.247E+00 -.880E+00 0.546E+00   -.347E-05 0.248E-03 -.324E-04
   -.210E+02 -.362E+02 0.186E+02   0.214E+02 0.371E+02 -.190E+02   -.247E+00 -.880E+00 0.545E+00   -.876E-04 0.545E-03 0.127E-03
   -.111E+02 -.644E+01 0.477E+01   0.113E+02 0.655E+01 -.491E+01   -.117E-01 -.674E-02 0.112E+00   0.281E-04 0.221E-03 0.282E-04
   0.190E-03 -.148E+01 0.279E+01   -.755E-04 0.156E+01 -.276E+01   -.522E-04 -.863E-01 -.157E-01   0.661E-04 -.231E-03 0.502E-04
   0.371E+01 -.642E+01 0.379E+01   -.374E+01 0.649E+01 -.375E+01   0.124E+00 0.601E-01 -.711E-01   0.651E-04 -.315E-03 0.618E-04
   -.245E-03 -.135E+02 0.485E+01   0.348E-04 0.131E+02 -.491E+01   0.129E-04 -.125E+00 0.522E-01   0.103E-03 -.123E-03 0.205E-04
   -.371E+01 -.642E+01 0.364E+01   0.375E+01 0.649E+01 -.361E+01   -.124E+00 0.602E-01 -.587E-01   -.982E-04 0.146E-03 -.160E-03
   -.128E+01 0.740E+00 0.265E+01   0.135E+01 -.777E+00 -.263E+01   -.749E-01 0.429E-01 -.146E-02   -.132E-03 0.110E-03 -.139E-03
   0.128E+01 0.741E+00 0.278E+01   -.135E+01 -.778E+00 -.275E+01   0.748E-01 0.432E-01 -.151E-01   0.404E-04 -.617E-04 0.744E-04
   -.458E-03 -.105E-04 0.246E+01   0.222E-03 0.819E-04 -.245E+01   -.656E-04 0.310E-04 -.795E-02   0.215E-03 -.148E-03 -.281E-04
   0.530E+01 0.408E+01 0.263E+01   -.513E+01 -.430E+01 -.257E+01   -.718E-01 0.412E-02 -.115E+00   0.413E-04 -.281E-03 -.639E-03
   0.608E+01 0.171E+02 0.610E+01   -.582E+01 -.171E+02 -.569E+01   -.652E-01 0.161E+00 -.211E+00   0.609E-06 -.255E-03 -.634E-03
   -.607E+01 0.171E+02 0.683E+01   0.581E+01 -.171E+02 -.645E+01   0.668E-01 0.160E+00 -.118E+00   -.196E-03 0.120E-03 0.286E-04
   -.531E+01 0.407E+01 0.339E+01   0.514E+01 -.429E+01 -.336E+01   0.714E-01 0.358E-02 -.243E-01   0.159E-04 0.156E-03 0.928E-04
   0.618E+01 0.256E+01 0.336E+01   -.629E+01 -.230E+01 -.333E+01   -.326E-01 -.636E-01 -.208E-01   0.178E-03 0.440E-04 0.130E-04
   0.283E+02 0.163E+02 0.125E+02   -.286E+02 -.165E+02 -.130E+02   -.158E+00 -.915E-01 0.142E+00   -.393E-04 -.272E-03 -.738E-04
   -.995E-03 0.878E+02 0.586E+02   -.922E-04 -.922E+02 -.663E+02   0.425E-03 -.640E+00 0.331E+01   0.246E-03 -.438E-03 -.275E-03
   -.283E+02 0.163E+02 0.126E+02   0.286E+02 -.165E+02 -.131E+02   0.158E+00 -.914E-01 0.145E+00   0.577E-04 -.284E-03 0.862E-04
   -.618E+01 0.256E+01 0.339E+01   0.629E+01 -.230E+01 -.336E+01   0.326E-01 -.636E-01 -.239E-01   -.196E-03 -.149E-03 0.440E-04
   0.179E+02 -.331E+01 0.685E+01   -.177E+02 0.349E+01 -.647E+01   0.106E+00 -.138E+00 -.121E+00   -.233E-03 0.373E-03 0.997E-04
   0.760E+02 -.439E+02 0.586E+02   -.799E+02 0.461E+02 -.663E+02   -.554E+00 0.320E+00 0.330E+01   -.178E-03 0.456E-03 -.200E-03
   -.760E+02 -.439E+02 0.586E+02   0.799E+02 0.461E+02 -.663E+02   0.554E+00 0.320E+00 0.330E+01   0.360E-03 0.427E-04 -.137E-03
   -.179E+02 -.331E+01 0.686E+01   0.177E+02 0.349E+01 -.648E+01   -.106E+00 -.138E+00 -.121E+00   0.180E-03 0.507E-03 0.753E-04
   -.453E-03 -.609E+00 0.291E+01   0.563E-04 0.845E+00 -.288E+01   0.270E-04 -.154E+00 -.528E-01   0.237E-03 0.332E-03 0.258E-04
   0.118E+02 -.138E+02 0.686E+01   -.119E+02 0.136E+02 -.648E+01   0.172E+00 -.233E-01 -.121E+00   -.692E-04 -.409E-04 0.102E-03
   0.203E-03 -.327E+02 0.126E+02   0.800E-04 0.330E+02 -.131E+02   0.116E-03 0.183E+00 0.145E+00   -.233E-03 0.221E-03 0.285E-04
   -.118E+02 -.138E+02 0.683E+01   0.119E+02 0.136E+02 -.645E+01   -.172E+00 -.233E-01 -.118E+00   0.422E-03 0.152E-03 0.100E-03
   -.385E+01 -.222E+01 0.278E+01   0.378E+01 0.218E+01 -.282E+01   -.198E-01 -.114E-01 0.155E-01   -.175E-03 -.149E-03 0.447E-04
   0.385E+01 -.222E+01 0.280E+01   -.378E+01 0.218E+01 -.284E+01   0.198E-01 -.114E-01 0.131E-01   0.162E-03 -.458E-03 0.513E-04
   0.873E+00 -.663E+01 0.339E+01   -.115E+01 0.660E+01 -.335E+01   0.389E-01 0.600E-01 -.237E-01   0.133E-03 -.313E-03 0.435E-04
   -.874E+00 -.664E+01 0.331E+01   0.115E+01 0.660E+01 -.327E+01   -.388E-01 0.599E-01 -.271E-01   0.132E-03 -.879E-04 -.435E-04
   -.527E+00 0.296E+00 0.216E+01   0.732E+00 -.414E+00 -.210E+01   -.134E+00 0.771E-01 -.142E+00   -.517E-04 0.523E-04 -.691E-03
   0.883E-03 0.444E+01 0.272E+01   -.422E-03 -.437E+01 -.276E+01   0.193E-03 0.227E-01 0.102E-01   -.311E-03 0.662E-04 -.797E-04
   0.527E+00 0.304E+00 0.291E+01   -.732E+00 -.422E+00 -.288E+01   0.134E+00 0.772E-01 -.521E-01   0.116E-03 -.252E-03 0.678E-04
   0.572E-02 0.111E-01 -.723E+03   -.636E-02 -.110E-01 0.846E+03   0.117E-02 -.148E-02 -.638E+02   -.236E-03 0.294E-03 0.481E-03
 -----------------------------------------------------------------------------------------------
   -.349E-02 0.163E-02 0.440E+02   0.717E-14 -.221E-12 -.114E-12   0.398E-02 -.159E-02 -.440E+02   -.186E-05 0.148E-03 -.307E-02
 
 
 POSITION                                       TOTAL-FORCE (eV/Angst)
 -----------------------------------------------------------------------------------
      0.00000      0.00000      8.35995        -0.047563     -0.027623      0.009264
      2.46000      0.00000      8.35995         0.047448     -0.027681      0.014914
      4.92000      0.00000      8.34995        -0.159723      0.014621      0.114206
      7.38000      0.00000      8.35995         0.000750     -0.208317     -0.022427
      9.84000      0.00000      8.35995         0.158866      0.014343     -0.025787
      1.23000      2.13042      8.35995         0.000023      0.055008      0.008567
      3.69000      2.13042      8.35995         0.429104      0.247794      0.004892
      6.15000      2.13042      8.35995         0.094448     -0.204959      0.170565
      8.61000      2.13042      8.35995        -0.093712     -0.205041      0.163992
     11.07000      2.13042      8.35995        -0.428799      0.247513      0.000199
      2.46000      4.26084      8.35995        -0.066957     -0.144980     -0.025870
      4.92000      4.26084      8.35995        -0.129935      0.184247      0.164089
      7.38000      4.26084      8.35995        -0.000447      0.001269    -48.156728
      9.84000      4.26084      8.35995         0.130362      0.184991      0.165077
     12.30000      4.26084      8.35995         0.067191     -0.145127     -0.025965
      3.69000      6.39127      8.35995        -0.179890      0.103835     -0.026892
      6.15000      6.39127      8.35995        -0.224820      0.020466      0.165016
      8.61000      6.39127      8.35995         0.224920      0.020105      0.165012
     11.07000      6.39127      8.35995         0.179704      0.103814     -0.027842
     13.53000      6.39127      8.35995         0.000119     -0.013146      0.017871
      4.92000      8.52169      8.35995         0.092033      0.130556     -0.025959
      7.38000      8.52169      8.35995        -0.000104     -0.495207     -0.000854
      9.84000      8.52169      8.35995        -0.092043      0.130677     -0.021354
     12.30000      8.52169      8.35995        -0.011573      0.005798      0.023357
     14.76000      8.52169      8.35995         0.011196      0.006586      0.017037
      1.23000      0.71014      8.36012        -0.000096     -0.000049     -0.001179
      3.69000      0.71014      8.36012         0.098159     -0.217852     -0.051748
      6.15000      0.71014      8.36012         0.193658      0.250830      0.196395
      8.61000      0.71014      8.36012        -0.193887      0.249859      0.261957
     11.07000      0.71014      8.36012        -0.097126     -0.217064      0.009438
      2.46000      2.84056      8.36012        -0.139841      0.192908      0.014705
      4.92000      2.84056      8.36012        -0.442175     -0.254636     -0.358896
      7.38000      2.84056      8.36012        -0.000426     -5.076881     -4.343670
      9.84000      2.84056      8.36012         0.441354     -0.255524     -0.355911
     12.30000      2.84056      8.36012         0.139446      0.192919      0.009637
      3.69000      4.97099      8.36012         0.313656      0.043094      0.257251
      6.15000      4.97099      8.36012        -4.396448      2.538030     -4.349320
      8.61000      4.97099      8.36012         4.396303      2.538344     -4.349446
     11.07000      4.97099      8.36012        -0.314077      0.043050      0.256549
     13.53000      4.97099      8.36012        -0.000143      0.082391     -0.022650
      4.92000      7.10141      8.36012         0.119500     -0.293083      0.256911
      7.38000      7.10141      8.36012         0.000156      0.510135     -0.355349
      9.84000      7.10141      8.36012        -0.119476     -0.293504      0.261820
     12.30000      7.10141      8.36012        -0.082157     -0.046966     -0.021601
     14.76000      7.10141      8.36012         0.082015     -0.047557     -0.026397
      6.15000      9.23183      8.36012        -0.236755      0.024534      0.010181
      8.61000      9.23183      8.36012         0.236773      0.024533      0.006459
     11.07000      9.23183      8.36012         0.071520     -0.040224     -0.082629
     13.53000      9.23183      8.36012         0.000334      0.095333     -0.030382
     15.99000      9.23183      8.36012        -0.071154     -0.041048     -0.021938
      7.38000      4.26084      9.36012         0.000291     -0.001114     59.985430
 -----------------------------------------------------------------------------------
    total drift:                                0.000496      0.000186      0.001797


--------------------------------------------------------------------------------------------------------



  FREE ENERGIE OF THE ION-ELECTRON SYSTEM (eV)
  ---------------------------------------------------
  free  energy   TOTEN  =      -454.34011618 eV

  energy  without entropy=     -454.34000167  energy(sigma->0) =     -454.34005892
 


--------------------------------------------------------------------------------------------------------


    POTLOK:  cpu time    0.1862: real time    0.1876


--------------------------------------------------------------------------------------------------------


 stress matrix after NEB project (eV)
     15.55805     -0.00461      0.00153
     -0.00461     15.55237     -0.00128
      0.00153     -0.00128     52.26113
  FORCES: max atom, RMS    59.985430   10.896480
  FORCE total and by dimension   77.816431   59.985430
  Stress total and by dimension   56.702337   52.261132
     LOOP+:  cpu time   47.0278: real time   47.0840
    4ORBIT:  cpu time    0.0000: real time    0.0000

 total amount of memory used by VASP MPI-rank0    90113. kBytes
=======================================================================

   base      :      30000. kBytes
   nonl-proj :       8674. kBytes
   fftplans  :      26248. kBytes
   grid      :      14579. kBytes
   one-center:         21. kBytes
   wavefun   :      10591. kBytes
 
  
  
 General timing and accounting informations for this job:
 ========================================================
  
                  Total CPU time used (sec):       54.690
                            User time (sec):       51.195
                          System time (sec):        3.495
                         Elapsed time (sec):       54.800
  
                   Maximum memory used (kb):      370044.
                   Average memory used (kb):           0.
  
                          Minor page faults:       111099
                          Major page faults:            0
                 Voluntary context switches:         1397
