  51  51   0   0
  0.5138078E+02  0.1230000E-08  0.1230000E-08  0.2000000E-08  0.5000000E-15
  1.000000000000000E-004
  CAR 
                                         
      5.97564907    -33.53688140  301     -3.01747816      1.00000000
    -33.537  0.0000E+00  0.0000E+00
    -33.405  0.0000E+00  0.0000E+00
    -33.273  0.0000E+00  0.0000E+00
    -33.142  0.0000E+00  0.0000E+00
    -33.010  0.0000E+00  0.0000E+00
    -32.878  0.0000E+00  0.0000E+00
    -32.747  0.0000E+00  0.0000E+00
    -32.615  0.0000E+00  0.0000E+00
    -32.483  0.0000E+00  0.0000E+00
    -32.352  0.0000E+00  0.0000E+00
    -32.220  0.0000E+00  0.0000E+00
    -32.088  0.0000E+00  0.0000E+00
    -31.956  0.8194E-08  0.1079E-08
    -31.825  0.1343E+00  0.1769E-01
    -31.693  0.1371E+02  0.1824E+01
    -31.561  0.1336E+01  0.2000E+01
    -31.430  0.2887E-05  0.2000E+01
    -31.298  0.0000E+00  0.2000E+01
    -31.166  0.0000E+00  0.2000E+01
    -31.034  0.0000E+00  0.2000E+01
    -30.903  0.0000E+00  0.2000E+01
    -30.771  0.0000E+00  0.2000E+01
    -30.639  0.0000E+00  0.2000E+01
    -30.508  0.0000E+00  0.2000E+01
    -30.376  0.0000E+00  0.2000E+01
    -30.244  0.0000E+00  0.2000E+01
    -30.112  0.0000E+00  0.2000E+01
    -29.981  0.0000E+00  0.2000E+01
    -29.849  0.0000E+00  0.2000E+01
    -29.717  0.0000E+00  0.2000E+01
    -29.586  0.0000E+00  0.2000E+01
    -29.454  0.0000E+00  0.2000E+01
    -29.322  0.0000E+00  0.2000E+01
    -29.191  0.0000E+00  0.2000E+01
    -29.059  0.0000E+00  0.2000E+01
    -28.927  0.0000E+00  0.2000E+01
    -28.795  0.0000E+00  0.2000E+01
    -28.664  0.0000E+00  0.2000E+01
    -28.532  0.0000E+00  0.2000E+01
    -28.400  0.0000E+00  0.2000E+01
    -28.269  0.0000E+00  0.2000E+01
    -28.137  0.0000E+00  0.2000E+01
    -28.005  0.0000E+00  0.2000E+01
    -27.873  0.0000E+00  0.2000E+01
    -27.742  0.0000E+00  0.2000E+01
    -27.610  0.0000E+00  0.2000E+01
    -27.478  0.0000E+00  0.2000E+01
    -27.347  0.0000E+00  0.2000E+01
    -27.215  0.0000E+00  0.2000E+01
    -27.083  0.0000E+00  0.2000E+01
    -26.951  0.0000E+00  0.2000E+01
    -26.820  0.0000E+00  0.2000E+01
    -26.688  0.0000E+00  0.2000E+01
    -26.556  0.0000E+00  0.2000E+01
    -26.425  0.0000E+00  0.2000E+01
    -26.293  0.0000E+00  0.2000E+01
    -26.161  0.0000E+00  0.2000E+01
    -26.030  0.0000E+00  0.2000E+01
    -25.898  0.0000E+00  0.2000E+01
    -25.766  0.0000E+00  0.2000E+01
    -25.634  0.0000E+00  0.2000E+01
    -25.503  0.0000E+00  0.2000E+01
    -25.371  0.0000E+00  0.2000E+01
    -25.239  0.0000E+00  0.2000E+01
    -25.108  0.0000E+00  0.2000E+01
    -24.976  0.0000E+00  0.2000E+01
    -24.844  0.0000E+00  0.2000E+01
    -24.712  0.0000E+00  0.2000E+01
    -24.581  0.0000E+00  0.2000E+01
    -24.449  0.0000E+00  0.2000E+01
    -24.317  0.0000E+00  0.2000E+01
    -24.186  0.0000E+00  0.2000E+01
    -24.054  0.0000E+00  0.2000E+01
    -23.922  0.0000E+00  0.2000E+01
    -23.790  0.0000E+00  0.2000E+01
    -23.659  0.0000E+00  0.2000E+01
    -23.527  0.0000E+00  0.2000E+01
    -23.395  0.0000E+00  0.2000E+01
    -23.264  0.0000E+00  0.2000E+01
    -23.132  0.0000E+00  0.2000E+01
    -23.000  0.0000E+00  0.2000E+01
    -22.868  0.0000E+00  0.2000E+01
    -22.737  0.0000E+00  0.2000E+01
    -22.605  0.0000E+00  0.2000E+01
    -22.473  0.9236E-08  0.2000E+01
    -22.342  0.3938E-01  0.2005E+01
    -22.210  0.4403E+01  0.2585E+01
    -22.078  0.9221E+01  0.3799E+01
    -21.947  0.4906E+01  0.4446E+01
    -21.815  0.1071E+02  0.5856E+01
    -21.683  0.5526E+01  0.6583E+01
    -21.551  0.7697E+01  0.7597E+01
    -21.420  0.1273E+02  0.9274E+01
    -21.288  0.5506E+01  0.9999E+01
    -21.156  0.3764E+01  0.1050E+02
    -21.025  0.9224E+01  0.1171E+02
    -20.893  0.1079E+02  0.1313E+02
    -20.761  0.1002E+02  0.1445E+02
    -20.629  0.8359E+01  0.1555E+02
    -20.498  0.2018E+00  0.1558E+02
    -20.366  0.1315E+02  0.1731E+02
    -20.234  0.3944E+01  0.1783E+02
    -20.103  0.1859E+02  0.2028E+02
    -19.971  0.1275E+01  0.2045E+02
    -19.839  0.3596E+01  0.2092E+02
    -19.707  0.1392E+02  0.2275E+02
    -19.576  0.8483E+01  0.2387E+02
    -19.444  0.6043E+01  0.2467E+02
    -19.312  0.6910E+01  0.2558E+02
    -19.181  0.1400E+02  0.2742E+02
    -19.049  0.7543E+01  0.2841E+02
    -18.917  0.4722E+01  0.2904E+02
    -18.786  0.5221E+01  0.2972E+02
    -18.654  0.5240E+01  0.3041E+02
    -18.522  0.1386E+02  0.3224E+02
    -18.390  0.1139E+02  0.3374E+02
    -18.259  0.8661E+01  0.3488E+02
    -18.127  0.4880E+01  0.3552E+02
    -17.995  0.1527E+02  0.3753E+02
    -17.864  0.4797E+01  0.3817E+02
    -17.732  0.3725E+01  0.3866E+02
    -17.600  0.5897E+01  0.3943E+02
    -17.468  0.1577E+02  0.4151E+02
    -17.337  0.4133E+01  0.4205E+02
    -17.205  0.2136E+02  0.4487E+02
    -17.073  0.6808E+01  0.4576E+02
    -16.942  0.3489E+01  0.4622E+02
    -16.810  0.8910E+01  0.4740E+02
    -16.678  0.4147E+01  0.4794E+02
    -16.546  0.8808E+01  0.4910E+02
    -16.415  0.8883E+01  0.5027E+02
    -16.283  0.3052E+01  0.5068E+02
    -16.151  0.9324E+01  0.5190E+02
    -16.020  0.5868E+01  0.5268E+02
    -15.888  0.1302E+02  0.5439E+02
    -15.756  0.1193E+02  0.5596E+02
    -15.625  0.2145E+01  0.5625E+02
    -15.493  0.4233E+01  0.5680E+02
    -15.361  0.2727E+01  0.5716E+02
    -15.229  0.1021E+02  0.5851E+02
    -15.098  0.2209E+02  0.6142E+02
    -14.966  0.4694E+01  0.6203E+02
    -14.834  0.1150E+02  0.6355E+02
    -14.703  0.1039E+02  0.6492E+02
    -14.571  0.6391E+01  0.6576E+02
    -14.439  0.1586E+02  0.6785E+02
    -14.307  0.4530E+01  0.6844E+02
    -14.176  0.1092E+01  0.6859E+02
    -14.044  0.4020E+01  0.6912E+02
    -13.912  0.1015E+02  0.7045E+02
    -13.781  0.1690E+02  0.7268E+02
    -13.649  0.1766E+02  0.7501E+02
    -13.517  0.1688E+01  0.7523E+02
    -13.385  0.2474E+01  0.7556E+02
    -13.254  0.5326E+00  0.7563E+02
    -13.122  0.1127E+02  0.7711E+02
    -12.990  0.1389E+02  0.7894E+02
    -12.859  0.2041E+02  0.8163E+02
    -12.727  0.1146E+01  0.8178E+02
    -12.595  0.4991E+01  0.8244E+02
    -12.464  0.1749E+02  0.8474E+02
    -12.332  0.1081E+02  0.8616E+02
    -12.200  0.3611E+01  0.8664E+02
    -12.068  0.3255E+01  0.8707E+02
    -11.937  0.1206E+02  0.8866E+02
    -11.805  0.3722E+01  0.8915E+02
    -11.673  0.1618E+02  0.9128E+02
    -11.542  0.1760E+02  0.9360E+02
    -11.410  0.1344E+02  0.9537E+02
    -11.278  0.8491E+01  0.9648E+02
    -11.146  0.5547E+01  0.9722E+02
    -11.015  0.7682E+01  0.9823E+02
    -10.883  0.1321E+02  0.9997E+02
    -10.751  0.1674E+02  0.1022E+03
    -10.620  0.2103E+01  0.1024E+03
    -10.488  0.2054E+02  0.1052E+03
    -10.356  0.3821E+01  0.1057E+03
    -10.224  0.2492E+02  0.1089E+03
    -10.093  0.2526E+02  0.1123E+03
     -9.961  0.1818E+02  0.1147E+03
     -9.829  0.1507E+02  0.1166E+03
     -9.698  0.1734E+02  0.1189E+03
     -9.566  0.2788E+02  0.1226E+03
     -9.434  0.2046E+02  0.1253E+03
     -9.303  0.2754E+02  0.1289E+03
     -9.171  0.2348E+02  0.1320E+03
     -9.039  0.2874E+02  0.1358E+03
     -8.907  0.2007E+02  0.1384E+03
     -8.776  0.1725E+02  0.1407E+03
     -8.644  0.2376E+02  0.1438E+03
     -8.512  0.1708E+02  0.1461E+03
     -8.381  0.1658E+02  0.1483E+03
     -8.249  0.1521E+02  0.1503E+03
     -8.117  0.1646E+02  0.1525E+03
     -7.985  0.2832E+02  0.1562E+03
     -7.854  0.1613E+02  0.1583E+03
     -7.722  0.1614E+02  0.1604E+03
     -7.590  0.8243E+01  0.1615E+03
     -7.459  0.2013E+01  0.1618E+03
     -7.327  0.1828E+02  0.1642E+03
     -7.195  0.3222E+02  0.1684E+03
     -7.063  0.1513E+02  0.1704E+03
     -6.932  0.4765E+01  0.1711E+03
     -6.800  0.1898E+02  0.1736E+03
     -6.668  0.1277E+02  0.1752E+03
     -6.537  0.1595E+02  0.1773E+03
     -6.405  0.7115E+01  0.1783E+03
     -6.273  0.1262E+02  0.1799E+03
     -6.142  0.1535E+02  0.1820E+03
     -6.010  0.1355E+02  0.1837E+03
     -5.878  0.2043E+02  0.1864E+03
     -5.746  0.7799E+01  0.1875E+03
     -5.615  0.1361E+02  0.1893E+03
     -5.483  0.3139E+01  0.1897E+03
     -5.351  0.7975E+01  0.1907E+03
     -5.220  0.8501E+01  0.1918E+03
     -5.088  0.1203E+02  0.1934E+03
     -4.956  0.1859E+02  0.1959E+03
     -4.824  0.1462E+02  0.1978E+03
     -4.693  0.3182E+01  0.1982E+03
     -4.561  0.7535E-01  0.1982E+03
     -4.429  0.4728E-04  0.1982E+03
     -4.298  0.3229E+01  0.1986E+03
     -4.166  0.1735E+02  0.2009E+03
     -4.034  0.4729E+01  0.2016E+03
     -3.902  0.6946E-03  0.2016E+03
     -3.771  0.4798E+00  0.2016E+03
     -3.639  0.2881E+01  0.2020E+03
     -3.507  0.2965E+00  0.2020E+03
     -3.376  0.4452E+01  0.2026E+03
     -3.244  0.1229E+02  0.2042E+03
     -3.112  0.1090E+02  0.2057E+03
     -2.981  0.2505E+01  0.2060E+03
     -2.849  0.2628E+01  0.2064E+03
     -2.717  0.9053E+01  0.2075E+03
     -2.585  0.6974E-01  0.2076E+03
     -2.454  0.1028E+00  0.2076E+03
     -2.322  0.3173E+01  0.2080E+03
     -2.190  0.2908E+01  0.2084E+03
     -2.059  0.5647E+00  0.2084E+03
     -1.927  0.4610E-05  0.2084E+03
     -1.795  0.4228E-07  0.2084E+03
     -1.663  0.2114E+00  0.2085E+03
     -1.532  0.9561E+01  0.2097E+03
     -1.400  0.1276E+02  0.2114E+03
     -1.268  0.2779E+01  0.2118E+03
     -1.137  0.1225E-03  0.2118E+03
     -1.005  0.1239E+01  0.2119E+03
     -0.873  0.1126E+02  0.2134E+03
     -0.741  0.2288E+02  0.2164E+03
     -0.610  0.1820E+02  0.2188E+03
     -0.478  0.5269E+01  0.2195E+03
     -0.346  0.2359E+00  0.2196E+03
     -0.215  0.4707E+01  0.2202E+03
     -0.083  0.1130E+02  0.2217E+03
      0.049  0.1035E+02  0.2230E+03
      0.180  0.7763E+00  0.2231E+03
      0.312  0.1655E+02  0.2253E+03
      0.444  0.7320E+01  0.2263E+03
      0.576  0.3232E+01  0.2267E+03
      0.707  0.1140E+02  0.2282E+03
      0.839  0.1653E+02  0.2304E+03
      0.971  0.6190E+01  0.2312E+03
      1.102  0.1133E+02  0.2327E+03
      1.234  0.1455E+02  0.2346E+03
      1.366  0.8621E+01  0.2357E+03
      1.498  0.1498E+02  0.2377E+03
      1.629  0.2304E+02  0.2408E+03
      1.761  0.1662E+02  0.2429E+03
      1.893  0.2639E+02  0.2464E+03
      2.024  0.8333E+01  0.2475E+03
      2.156  0.1695E+02  0.2497E+03
      2.288  0.2588E+02  0.2532E+03
      2.420  0.2829E+02  0.2569E+03
      2.551  0.7118E+01  0.2578E+03
      2.683  0.6560E+01  0.2587E+03
      2.815  0.9816E+01  0.2600E+03
      2.946  0.3917E+01  0.2605E+03
      3.078  0.9234E+01  0.2617E+03
      3.210  0.2801E+01  0.2621E+03
      3.341  0.4456E+01  0.2627E+03
      3.473  0.2489E-01  0.2627E+03
      3.605  0.2857E+01  0.2630E+03
      3.737  0.3888E+01  0.2636E+03
      3.868  0.3713E-02  0.2636E+03
      4.000  0.6371E-06  0.2636E+03
      4.132  0.2962E+00  0.2636E+03
      4.263  0.3048E+01  0.2640E+03
      4.395  0.2996E-01  0.2640E+03
      4.527  0.1836E-08  0.2640E+03
      4.659  0.0000E+00  0.2640E+03
      4.790  0.0000E+00  0.2640E+03
      4.922  0.0000E+00  0.2640E+03
      5.054  0.0000E+00  0.2640E+03
      5.185  0.0000E+00  0.2640E+03
      5.317  0.0000E+00  0.2640E+03
      5.449  0.0000E+00  0.2640E+03
      5.581  0.0000E+00  0.2640E+03
      5.712  0.0000E+00  0.2640E+03
      5.844  0.0000E+00  0.2640E+03
      5.976  0.0000E+00  0.2640E+03
