 vasp.5.4.4.18Apr17-6-g9f103f2a35 (build Aug 13 2022 23:40:43) complex          
  
 executed on             LinuxIFC date 2024.11.10  04:05:12
 running on   48 total cores
 distrk:  each k-point on   48 cores,    1 groups
 distr:  one band on NCORES_PER_BAND=   8 cores,    6 groups


--------------------------------------------------------------------------------------------------------


 INCAR:
 POTCAR:    PAW_PBE C 08Apr2002                   
 POTCAR:    PAW_PBE O 08Apr2002                   
 POTCAR:    PAW_PBE C 08Apr2002                   
   VRHFIN =C: s2p2                                                              
   LEXCH  = PE                                                                  
   EATOM  =   147.1560 eV,   10.8157 Ry                                         
                                                                                
   TITEL  = PAW_PBE C 08Apr2002                                                 
   LULTRA =        F    use ultrasoft PP ?                                      
   IUNSCR =        1    unscreen: 0-lin 1-nonlin 2-no                           
   RPACOR =    1.200    partial core radius                                     
   POMASS =   12.011; ZVAL   =    4.000    mass and valenz                      
   RCORE  =    1.500    outmost cutoff radius                                   
   RWIGS  =    1.630; RWIGS  =    0.863    wigner-seitz radius (au A)           
   ENMAX  =  400.000; ENMIN  =  300.000 eV                                      
   ICORE  =        2    local potential                                         
   LCOR   =        T    correct aug charges                                     
   LPAW   =        T    paw PP                                                  
   EAUG   =  644.873                                                            
   DEXC   =    0.000                                                            
   RMAX   =    1.529    core radius for proj-oper                               
   RAUG   =    1.300    factor for augmentation sphere                          
   RDEP   =    1.501    radius for radial grids                                 
   RDEPT  =    1.300    core radius for aug-charge                              
                                                                                
   Atomic configuration                                                         
    4 entries                                                                   
     n  l   j            E        occ.                                          
     1  0  0.50      -273.3789   2.0000                                         
     2  0  0.50       -13.7508   2.0000                                         
     2  1  0.50        -5.2854   2.0000                                         
     3  2  1.50        -5.4423   0.0000                                         
   Description                                                                  
     l       E           TYP  RCUT    TYP  RCUT                                 
     0    -13.7508458     23  1.200                                             
     0     -8.2022199     23  1.200                                             
     1     -5.2854383     23  1.500                                             
     1     34.0145650     23  1.500                                             
     2     -5.4423304      7  1.500                                             
  local pseudopotential read in
  partial core-charges read in
  partial kinetic energy density read in
  atomic valenz-charges read in
  non local Contribution for L=           0  read in
    real space projection operators read in
  non local Contribution for L=           0  read in
    real space projection operators read in
  non local Contribution for L=           1  read in
    real space projection operators read in
  non local Contribution for L=           1  read in
    real space projection operators read in
    PAW grid and wavefunctions read in
 
   number of l-projection  operators is LMAX  =           4
   number of lm-projection operators is LMMAX =           8
 
 POTCAR:    PAW_PBE O 08Apr2002                   
   VRHFIN =O: s2p4                                                              
   LEXCH  = PE                                                                  
   EATOM  =   432.3788 eV,   31.7789 Ry                                         
                                                                                
   TITEL  = PAW_PBE O 08Apr2002                                                 
   LULTRA =        F    use ultrasoft PP ?                                      
   IUNSCR =        1    unscreen: 0-lin 1-nonlin 2-no                           
   RPACOR =    1.200    partial core radius                                     
   POMASS =   16.000; ZVAL   =    6.000    mass and valenz                      
   RCORE  =    1.520    outmost cutoff radius                                   
   RWIGS  =    1.550; RWIGS  =    0.820    wigner-seitz radius (au A)           
   ENMAX  =  400.000; ENMIN  =  300.000 eV                                      
   ICORE  =        2    local potential                                         
   LCOR   =        T    correct aug charges                                     
   LPAW   =        T    paw PP                                                  
   EAUG   =  605.392                                                            
   DEXC   =    0.000                                                            
   RMAX   =    1.553    core radius for proj-oper                               
   RAUG   =    1.300    factor for augmentation sphere                          
   RDEP   =    1.550    radius for radial grids                                 
   RDEPT  =    1.329    core radius for aug-charge                              
                                                                                
   Atomic configuration                                                         
    4 entries                                                                   
     n  l   j            E        occ.                                          
     1  0  0.50      -514.6923   2.0000                                         
     2  0  0.50       -23.9615   2.0000                                         
     2  1  0.50        -9.0305   4.0000                                         
     3  2  1.50        -9.5241   0.0000                                         
   Description                                                                  
     l       E           TYP  RCUT    TYP  RCUT                                 
     0    -23.9615318     23  1.200                                             
     0     -9.5240782     23  1.200                                             
     1     -9.0304911     23  1.520                                             
     1      8.1634956     23  1.520                                             
     2     -9.5240782      7  1.500                                             
  local pseudopotential read in
  partial core-charges read in
  partial kinetic energy density read in
  kinetic energy density of atom read in
  atomic valenz-charges read in
  non local Contribution for L=           0  read in
    real space projection operators read in
  non local Contribution for L=           0  read in
    real space projection operators read in
  non local Contribution for L=           1  read in
    real space projection operators read in
  non local Contribution for L=           1  read in
    real space projection operators read in
    PAW grid and wavefunctions read in
 
   number of l-projection  operators is LMAX  =           4
   number of lm-projection operators is LMMAX =           8
 

 ----------------------------------------------------------------------------- 
|                                                                             |
|  ADVICE TO THIS USER RUNNING 'VASP/VAMP'   (HEAR YOUR MASTER'S VOICE ...):  |
|                                                                             |
|      You have a (more or less) 'large supercell' and for larger cells       |
|      it might be more efficient to use real space projection opertators     |
|      So try LREAL= Auto  in the INCAR   file.                               |
|      Mind:          For very  accurate calculation you might also keep the  |
|      reciprocal projection scheme          (i.e. LREAL=.FALSE.)             |
|                                                                             |
 ----------------------------------------------------------------------------- 

  PAW_PBE C 08Apr2002                   :
 energy of atom  1       EATOM= -147.1560
 kinetic energy error for atom=    0.0288 (will be added to EATOM!!)
  PAW_PBE O 08Apr2002                   :
 energy of atom  2       EATOM= -432.3788
 kinetic energy error for atom=    0.1156 (will be added to EATOM!!)
 
 
 POSCAR: generated by phonopy                    
  positions in direct lattice
  No initial velocities read in
 exchange correlation table for  LEXCH =        8
   RHO(1)=    0.500       N(1)  =     2000
   RHO(2)=  100.500       N(2)  =     4000

 VTST: version 3.2, (02/03/18)

 CHAIN: initializing optimizer
 
 OPT: Using VASP Dynamics algorithm
 CHAIN: Read ICHAIN            0
 
 POSCAR: generated by phonopy                    
  positions in direct lattice
  No initial velocities read in
 


--------------------------------------------------------------------------------------------------------


 ion  position               nearest neighbor table
   1  0.000  0.000  0.418-  26 1.42  30 1.42  46 1.42
   2  0.200  0.000  0.418-  27 1.42  47 1.42  26 1.42
   3  0.400  0.000  0.418-  28 1.42  27 1.42  48 1.42
   4  0.600  0.000  0.418-  29 1.42  28 1.42  49 1.42
   5  0.800  0.000  0.418-  30 1.42  29 1.42  50 1.42
   6  0.000  0.200  0.418-  31 1.42  35 1.42  26 1.42
   7  0.200  0.200  0.418-  32 1.42  31 1.42  27 1.42
   8  0.400  0.200  0.418-  33 1.42  32 1.42  28 1.42
   9  0.600  0.200  0.418-  34 1.42  33 1.42  29 1.42
  10  0.800  0.200  0.418-  35 1.42  34 1.42  30 1.42
  11  0.000  0.400  0.418-  36 1.42  40 1.42  31 1.42
  12  0.200  0.400  0.418-  37 1.42  36 1.42  32 1.42
  13  0.400  0.400  0.418-  51 1.00  38 1.42  37 1.42  33 1.42
  14  0.600  0.400  0.418-  39 1.42  38 1.42  34 1.42
  15  0.800  0.400  0.418-  40 1.42  39 1.42  35 1.42
  16  0.000  0.600  0.418-  41 1.42  45 1.42  36 1.42
  17  0.200  0.600  0.418-  42 1.42  41 1.42  37 1.42
  18  0.400  0.600  0.418-  43 1.42  42 1.42  38 1.42
  19  0.600  0.600  0.418-  44 1.42  43 1.42  39 1.42
  20  0.800  0.600  0.418-  45 1.42  44 1.42  40 1.42
  21  0.000  0.800  0.418-  46 1.42  50 1.42  41 1.42
  22  0.200  0.800  0.418-  47 1.42  46 1.42  42 1.42
  23  0.400  0.800  0.418-  48 1.42  47 1.42  43 1.42
  24  0.600  0.800  0.418-  49 1.42  48 1.42  44 1.42
  25  0.800  0.800  0.418-  50 1.42  49 1.42  45 1.42
  26  0.066  0.067  0.418-   1 1.42   6 1.42   2 1.42
  27  0.267  0.067  0.418-   2 1.42   3 1.42   7 1.42
  28  0.467  0.067  0.418-   3 1.42   4 1.42   8 1.42
  29  0.667  0.067  0.418-   4 1.42   5 1.42   9 1.42
  30  0.867  0.067  0.418-   5 1.42   1 1.42  10 1.42
  31  0.067  0.267  0.418-   6 1.42   7 1.42  11 1.42
  32  0.267  0.267  0.418-   7 1.42   8 1.42  12 1.42
  33  0.467  0.267  0.418-   8 1.42   9 1.42  13 1.42  51 1.74
  34  0.667  0.267  0.418-   9 1.42  10 1.42  14 1.42
  35  0.867  0.267  0.418-  10 1.42   6 1.42  15 1.42
  36  0.067  0.467  0.418-  11 1.42  12 1.42  16 1.42
  37  0.267  0.467  0.418-  12 1.42  13 1.42  17 1.42  51 1.74
  38  0.467  0.467  0.418-  13 1.42  14 1.42  18 1.42  51 1.74
  39  0.667  0.467  0.418-  14 1.42  15 1.42  19 1.42
  40  0.867  0.467  0.418-  15 1.42  11 1.42  20 1.42
  41  0.067  0.667  0.418-  16 1.42  17 1.42  21 1.42
  42  0.267  0.667  0.418-  17 1.42  18 1.42  22 1.42
  43  0.467  0.667  0.418-  18 1.42  19 1.42  23 1.42
  44  0.667  0.667  0.418-  19 1.42  20 1.42  24 1.42
  45  0.867  0.667  0.418-  20 1.42  16 1.42  25 1.42
  46  0.067  0.867  0.418-  21 1.42  22 1.42   1 1.42
  47  0.267  0.867  0.418-  22 1.42  23 1.42   2 1.42
  48  0.467  0.867  0.418-  23 1.42  24 1.42   3 1.42
  49  0.667  0.867  0.418-  24 1.42  25 1.42   4 1.42
  50  0.867  0.867  0.418-  25 1.42  21 1.42   5 1.42
  51  0.400  0.400  0.468-  13 1.00  38 1.74  37 1.74  33 1.74
 
  LATTYP: Found a hexagonal cell.
 ALAT       =    12.2999994816
 C/A-ratio  =     1.6260163287
  
  Lattice vectors:
  
 A1 = (   6.1499993860, -10.6521122225,   0.0000000000)
 A2 = ( -12.3000001905,   0.0000000000,   0.0000000000)
 A3 = (   0.0000000000,   0.0000000000, -20.0000000000)


Analysis of symmetry for initial positions (statically):
=====================================================================
 Subroutine PRICEL returns:
 Original cell was already a primitive cell.
 

 Routine SETGRP: Setting up the symmetry group for a 
 hexagonal supercell.


 Subroutine GETGRP returns: Found  1 space group operations
 (whereof  1 operations were pure point group operations)
 out of a pool of 24 trial point group operations.


The static configuration has the point symmetry C_1 .


Analysis of symmetry for dynamics (positions and initial velocities):
=====================================================================
 Subroutine PRICEL returns:
 Original cell was already a primitive cell.
 

 Routine SETGRP: Setting up the symmetry group for a 
 hexagonal supercell.


 Subroutine GETGRP returns: Found  1 space group operations
 (whereof  1 operations were pure point group operations)
 out of a pool of 24 trial point group operations.


The dynamic configuration has the point symmetry C_1 .


 Subroutine INISYM returns: Found  1 space group operations
 (whereof  1 operations are pure point group operations),
 and found     1 'primitive' translations

 
 
 KPOINTS: K-POINTS                                

Automatic generation of k-mesh.
Space group operators:
 irot       det(A)        alpha          n_x          n_y          n_z        tau_x        tau_y        tau_z
    1     1.000000     0.000000     1.000000     0.000000     0.000000     0.000000     0.000000     0.000000
 
 Subroutine IBZKPT returns following result:
 ===========================================
 
 Found      5 irreducible k-points:
 
 Following reciprocal coordinates:
            Coordinates               Weight
  0.000000  0.000000  0.000000      1.000000
  0.333333  0.000000  0.000000      2.000000
  0.000000  0.333333  0.000000      2.000000
  0.333333  0.333333  0.000000      2.000000
 -0.333333  0.333333  0.000000      2.000000
 
 Following cartesian coordinates:
            Coordinates               Weight
  0.000000  0.000000  0.000000      1.000000
  0.027100 -0.015646  0.000000      2.000000
  0.000000  0.031293  0.000000      2.000000
  0.027100  0.015646  0.000000      2.000000
 -0.027100  0.046939  0.000000      2.000000
 


--------------------------------------------------------------------------------------------------------




 Dimension of arrays:
   k-points           NKPTS =      5   k-points in BZ     NKDIM =      5   number of bands    NBANDS=    132
   number of dos      NEDOS =    301   number of ions     NIONS =     51
   non local maximal  LDIM  =      4   non local SUM 2l+1 LMDIM =      8
   total plane-waves  NPLWV = 896000
   max r-space proj   IRMAX =      1   max aug-charges    IRDMAX=  35685
   dimension x,y,z NGX =    80 NGY =   80 NGZ =  140
   dimension x,y,z NGXF=   160 NGYF=  160 NGZF=  280
   support grid    NGXF=   320 NGYF=  320 NGZF=  560
   ions per type =              50   1
   NGX,Y,Z   is equivalent  to a cutoff of  10.81, 10.81, 11.64 a.u.
   NGXF,Y,Z  is equivalent  to a cutoff of  21.63, 21.63, 23.27 a.u.

 SYSTEM =                                          
 POSCAR =  generated by phonopy                    

 Startparameter for this run:
   NWRITE =      2    write-flag & timer
   PREC   = accura    normal or accurate (medium, high low for compatibility)
   ISTART =      1    job   : 0-new  1-cont  2-samecut
   ICHARG =      1    charge: 1-file 2-atom 10-const
   ISPIN  =      1    spin polarized calculation?
   LNONCOLLINEAR =      F non collinear calculations
   LSORBIT =      F    spin-orbit coupling
   INIWAV =      1    electr: 0-lowe 1-rand  2-diag
   LASPH  =      F    aspherical Exc in radial PAW
   METAGGA=      F    non-selfconsistent MetaGGA calc.

 Electronic Relaxation 1
   ENCUT  =  400.0 eV  29.40 Ry    5.42 a.u.  20.06 20.06 32.61*2*pi/ulx,y,z
   ENINI  =  400.0     initial cutoff
   ENAUG  =  644.9 eV  augmentation charge cutoff
   NELM   =    300;   NELMIN=  2; NELMDL=  0     # of ELM steps 
   EDIFF  = 0.1E-04   stopping-criterion for ELM
   LREAL  =      F    real-space projection
   NLSPLINE    = F    spline interpolate recip. space projectors
   LCOMPAT=      F    compatible to vasp.4.4
   GGA_COMPAT  = T    GGA compatible to vasp.4.4-vasp.4.6
   LMAXPAW     = -100 max onsite density
   LMAXMIX     =    2 max onsite mixed and CHGCAR
   VOSKOWN=      0    Vosko Wilk Nusair interpolation
   ROPT   =    0.00000   0.00000
 Ionic relaxation
   EDIFFG = -.1E-02   stopping-criterion for IOM
   NSW    =      1    number of steps for IOM
   NBLOCK =      1;   KBLOCK =      1    inner block; outer block 
   IBRION =     -1    ionic relax: 0-MD 1-quasi-New 2-CG
   NFREE  =      0    steps in history (QN), initial steepest desc. (CG)
   ISIF   =      2    stress and relaxation
   IWAVPR =     10    prediction:  0-non 1-charg 2-wave 3-comb
   ISYM   =      2    0-nonsym 1-usesym 2-fastsym
   LCORR  =      T    Harris-Foulkes like correction to forces

   POTIM  = 0.5000    time-step for ionic-motion
   TEIN   =    0.0    initial temperature
   TEBEG  =    0.0;   TEEND  =   0.0 temperature during run
   SMASS  =  -3.00    Nose mass-parameter (am)
   estimated Nose-frequenzy (Omega)   =  0.10E-29 period in steps =****** mass=  -0.346E-26a.u.
   SCALEE = 1.0000    scale energy and forces
   NPACO  =    256;   APACO  = 16.0  distance and # of slots for P.C.
   PSTRESS=    0.0 pullay stress

  Mass of Ions in am
   POMASS =  12.01 16.00
  Ionic Valenz
   ZVAL   =   4.00  6.00
  Atomic Wigner-Seitz radii
   RWIGS  =  -1.00 -1.00
  virtual crystal weights 
   VCA    =   1.00  1.00
   NELECT =     206.0000    total number of electrons
   NUPDOWN=      -1.0000    fix difference up-down

 DOS related values:
   EMIN   =  10.00;   EMAX   =-10.00  energy-range for DOS
   EFERMI =   0.00
   ISMEAR =     0;   SIGMA  =   0.05  broadening in eV -4-tet -1-fermi 0-gaus

 Electronic relaxation 2 (details)
   IALGO  =     68    algorithm
   LDIAG  =      T    sub-space diagonalisation (order eigenvalues)
   LSUBROT=      F    optimize rotation matrix (better conditioning)
   TURBO    =      0    0=normal 1=particle mesh
   IRESTART =      0    0=no restart 2=restart with 2 vectors
   NREBOOT  =      0    no. of reboots
   NMIN     =      0    reboot dimension
   EREF     =   0.00    reference energy to select bands
   IMIX   =      4    mixing-type and parameters
     AMIX     =   0.40;   BMIX     =  1.00
     AMIX_MAG =   1.60;   BMIX_MAG =  1.00
     AMIN     =   0.10
     WC   =   100.;   INIMIX=   1;  MIXPRE=   1;  MAXMIX= -45

 Intra band minimization:
   WEIMIN = 0.0000     energy-eigenvalue tresh-hold
   EBREAK =  0.19E-07  absolut break condition
   DEPER  =   0.30     relativ break condition  

   TIME   =   0.40     timestep for ELM

  volume/ion in A,a.u.               =      51.38       346.73
  Fermi-wavevector in a.u.,A,eV,Ry     =   0.701305  1.325274  6.691736  0.491829
  Thomas-Fermi vector in A             =   1.785695
 
 Write flags
   LWAVE        =      F    write WAVECAR
   LDOWNSAMPLE  =      F    k-point downsampling of WAVECAR
   LCHARG       =      F    write CHGCAR
   LVTOT        =      F    write LOCPOT, total local potential
   LVHAR        =      F    write LOCPOT, Hartree potential only
   LELF         =      F    write electronic localiz. function (ELF)
   LORBIT       =      0    0 simple, 1 ext, 2 COOP (PROOUT), +10 PAW based schemes


 Dipole corrections
   LMONO  =      F    monopole corrections only (constant potential shift)
   LDIPOL =      F    correct potential (dipole corrections)
   IDIPOL =      0    1-x, 2-y, 3-z, 4-all directions 
   EPSILON=  1.0000000 bulk dielectric constant

 Exchange correlation treatment:
   GGA     =    --    GGA type
   LEXCH   =     8    internal setting for exchange type
   VOSKOWN=      0    Vosko Wilk Nusair interpolation
   LHFCALC =     F    Hartree Fock is set to
   LHFONE  =     F    Hartree Fock one center treatment
   AEXX    =    0.0000 exact exchange contribution

 Linear response parameters
   LEPSILON=     F    determine dielectric tensor
   LRPA    =     F    only Hartree local field effects (RPA)
   LNABLA  =     F    use nabla operator in PAW spheres
   LVEL    =     F    velocity operator in full k-point grid
   LINTERFAST=   F  fast interpolation
   KINTER  =     0    interpolate to denser k-point grid
   CSHIFT  =0.1000    complex shift for real part using Kramers Kronig
   OMEGAMAX=  -1.0    maximum frequency
   DEG_THRESHOLD= 0.2000000E-02 threshold for treating states as degnerate
   RTIME   =   -0.100 relaxation time in fs
  (WPLASMAI=    0.000 imaginary part of plasma frequency in eV, 0.658/RTIME)
   DFIELD  = 0.0000000 0.0000000 0.0000000 field for delta impulse in time
 
 Orbital magnetization related:
   ORBITALMAG=     F  switch on orbital magnetization
   LCHIMAG   =     F  perturbation theory with respect to B field
   DQ        =  0.001000  dq finite difference perturbation B field
   LLRAUG    =     F  two centre corrections for induced B field



--------------------------------------------------------------------------------------------------------


 Static calculation
 charge density and potential will be updated during run
 non-spin polarized calculation
 RMM-DIIS sequential band-by-band and
  variant of blocked Davidson during initial phase
 perform sub-space diagonalisation
    before iterative eigenvector-optimisation
 modified Broyden-mixing scheme, WC =      100.0
 initial mixing is a Kerker type mixing with AMIX =  0.4000 and BMIX =      1.0000
 Hartree-type preconditioning will be used
 using additional bands           29
 reciprocal scheme for non local part
 use partial core corrections
 calculate Harris-corrections to forces 
   (improved forces if not selfconsistent)
 use gradient corrections 
 use of overlap-Matrix (Vanderbilt PP)
 Gauss-broadening in eV      SIGMA  =   0.05


--------------------------------------------------------------------------------------------------------


  energy-cutoff  :      400.00
  volume of cell :     2620.42
      direct lattice vectors                 reciprocal lattice vectors
    12.300000191  0.000000000  0.000000000     0.081300812 -0.046939053  0.000000000
     6.150000804 10.652112223  0.000000000     0.000000000  0.093878095  0.000000000
     0.000000000  0.000000000 20.000000000     0.000000000  0.000000000  0.050000000

  length of vectors
    12.300000191 12.300000191 20.000000000     0.093878095  0.093878095  0.050000000


 
 old parameters found on file WAVECAR:
  energy-cutoff  :      400.00
  volume of cell :     2620.42
      direct lattice vectors                 reciprocal lattice vectors
    12.300000191  0.000000000  0.000000000     0.081300812 -0.046939053  0.000000000
     6.150000804 10.652112223  0.000000000     0.000000000  0.093878095  0.000000000
     0.000000000  0.000000000 20.000000000     0.000000000  0.000000000  0.050000000

  length of vectors

 
 k-points in units of 2pi/SCALE and weight: K-POINTS                                
   0.00000000  0.00000000  0.00000000       0.111
   0.02710027 -0.01564635  0.00000000       0.222
   0.00000000  0.03129270  0.00000000       0.222
   0.02710027  0.01564635  0.00000000       0.222
  -0.02710027  0.04693905  0.00000000       0.222
 
 k-points in reciprocal lattice and weights: K-POINTS                                
   0.00000000  0.00000000  0.00000000       0.111
   0.33333333  0.00000000  0.00000000       0.222
   0.00000000  0.33333333  0.00000000       0.222
   0.33333333  0.33333333  0.00000000       0.222
  -0.33333333  0.33333333  0.00000000       0.222
 
 position of ions in fractional coordinates (direct lattice) 
   0.00000000  0.00000000  0.41799748
   0.20000000  0.00000000  0.41799748
   0.40000000  0.00000000  0.41799748
   0.60000000  0.00000000  0.41799748
   0.80000000  0.00000000  0.41799748
   0.00000000  0.20000000  0.41799748
   0.20000000  0.20000000  0.41799748
   0.40000000  0.20000000  0.41799748
   0.60000000  0.20000000  0.41799748
   0.80000000  0.20000000  0.41799748
   0.00000000  0.40000000  0.41799748
   0.20000000  0.40000000  0.41799748
   0.40000000  0.40000000  0.41799748
   0.60000000  0.40000000  0.41799748
   0.80000000  0.40000000  0.41799748
   0.00000000  0.60000000  0.41799748
   0.20000000  0.60000000  0.41799748
   0.40000000  0.60000000  0.41799748
   0.60000000  0.60000000  0.41799748
   0.80000000  0.60000000  0.41799748
   0.00000000  0.80000000  0.41799748
   0.20000000  0.80000000  0.41799748
   0.40000000  0.80000000  0.41799748
   0.60000000  0.80000000  0.41799748
   0.80000000  0.80000000  0.41799748
   0.06624077  0.06666660  0.41758019
   0.26666667  0.06666660  0.41800609
   0.46666667  0.06666660  0.41800609
   0.66666667  0.06666660  0.41800609
   0.86666667  0.06666660  0.41800609
   0.06666667  0.26666660  0.41800609
   0.26666667  0.26666660  0.41800609
   0.46666667  0.26666660  0.41800609
   0.66666667  0.26666660  0.41800609
   0.86666667  0.26666660  0.41800609
   0.06666667  0.46666660  0.41800609
   0.26666667  0.46666660  0.41800609
   0.46666667  0.46666660  0.41800609
   0.66666667  0.46666660  0.41800609
   0.86666667  0.46666660  0.41800609
   0.06666667  0.66666660  0.41800609
   0.26666667  0.66666660  0.41800609
   0.46666667  0.66666660  0.41800609
   0.66666667  0.66666660  0.41800609
   0.86666667  0.66666660  0.41800609
   0.06666667  0.86666660  0.41800609
   0.26666667  0.86666660  0.41800609
   0.46666667  0.86666660  0.41800609
   0.66666667  0.86666660  0.41800609
   0.86666667  0.86666660  0.41800609
   0.40000000  0.40000000  0.46800609
 
 position of ions in cartesian coordinates  (Angst):
   0.00000000  0.00000000  8.35994958
   2.46000004  0.00000000  8.35994958
   4.92000008  0.00000000  8.35994958
   7.38000011  0.00000000  8.35994958
   9.84000015  0.00000000  8.35994958
   1.23000016  2.13042244  8.35994958
   3.69000020  2.13042244  8.35994958
   6.15000024  2.13042244  8.35994958
   8.61000028  2.13042244  8.35994958
  11.07000031  2.13042244  8.35994958
   2.46000032  4.26084489  8.35994958
   4.92000036  4.26084489  8.35994958
   7.38000040  4.26084489  8.35994958
   9.84000044  4.26084489  8.35994958
  12.30000047  4.26084489  8.35994958
   3.69000048  6.39126733  8.35994958
   6.15000052  6.39126733  8.35994958
   8.61000056  6.39126733  8.35994958
  11.07000060  6.39126733  8.35994958
  13.53000064  6.39126733  8.35994958
   4.92000064  8.52168978  8.35994958
   7.38000068  8.52168978  8.35994958
   9.84000072  8.52168978  8.35994958
  12.30000076  8.52168978  8.35994958
  14.76000080  8.52168978  8.35994958
   1.22476110  0.71014014  8.35160379
   3.68999974  0.71014014  8.36012184
   6.14999977  0.71014014  8.36012184
   8.60999981  0.71014014  8.36012184
  11.06999985  0.71014014  8.36012184
   2.45999986  2.84056258  8.36012184
   4.91999990  2.84056258  8.36012184
   7.37999994  2.84056258  8.36012184
   9.83999997  2.84056258  8.36012184
  12.30000001  2.84056258  8.36012184
   3.69000002  4.97098503  8.36012184
   6.15000006  4.97098503  8.36012184
   8.61000010  4.97098503  8.36012184
  11.07000013  4.97098503  8.36012184
  13.53000017  4.97098503  8.36012184
   4.92000018  7.10140747  8.36012184
   7.38000022  7.10140747  8.36012184
   9.84000026  7.10140747  8.36012184
  12.30000030  7.10140747  8.36012184
  14.76000033  7.10140747  8.36012184
   6.15000034  9.23182991  8.36012184
   8.61000038  9.23182991  8.36012184
  11.07000042  9.23182991  8.36012184
  13.53000046  9.23182991  8.36012184
  15.99000049  9.23182991  8.36012184
   7.38000040  4.26084489  9.36012184
 


--------------------------------------------------------------------------------------------------------


 k-point  1 :   0.0000 0.0000 0.0000  plane waves:   47639
 k-point  2 :   0.3333 0.0000 0.0000  plane waves:   47601
 k-point  3 :   0.0000 0.3333 0.0000  plane waves:   47601
 k-point  4 :   0.3333 0.3333 0.0000  plane waves:   47601
 k-point  5 :  -0.3333 0.3333 0.0000  plane waves:   47598

 maximum and minimum number of plane-waves per node :      5975     5928

 maximum number of plane-waves:     47639
 maximum index in each direction: 
   IXMAX=   20   IYMAX=   20   IZMAX=   32
   IXMIN=  -20   IYMIN=  -20   IZMIN=  -32


 parallel 3D FFT for wavefunctions:
    minimum data exchange during FFTs selected (reduces bandwidth)
 parallel 3D FFT for charge:
    minimum data exchange during FFTs selected (reduces bandwidth)


 total amount of memory used by VASP MPI-rank0    90113. kBytes
=======================================================================

   base      :      30000. kBytes
   nonl-proj :       8674. kBytes
   fftplans  :      26248. kBytes
   grid      :      14579. kBytes
   one-center:         21. kBytes
   wavefun   :      10591. kBytes
 
     INWAV:  cpu time    0.8132: real time    0.8138
 Broyden mixing: mesh for mixing (old mesh)
   NGX = 41   NGY = 41   NGZ = 65
  (NGX  =160   NGY  =160   NGZ  =280)
  gives a total of 109265 points

 initial charge density was supplied:
 number of electron     206.0000000 magnetization 
 keeping initial charge density in first step


--------------------------------------------------------------------------------------------------------


 Maximum index for augmentation-charges         1119 (set IRDMAX)


--------------------------------------------------------------------------------------------------------


 First call to EWALD:  gamma=   0.129
 Maximum number of real-space cells 3x 3x 2
 Maximum number of reciprocal cells 3x 3x 4

    FEWALD:  cpu time    0.0014: real time    0.0028


--------------------------------------- Iteration      1(   1)  ---------------------------------------


    POTLOK:  cpu time    0.1055: real time    0.1072
    SETDIJ:  cpu time    0.0829: real time    0.0830
     EDDAV:  cpu time    4.1045: real time    4.1080
       DOS:  cpu time    0.0005: real time    0.0005
    CHARGE:  cpu time    0.3995: real time    0.3995
    MIXING:  cpu time    0.0065: real time    0.0068
    --------------------------------------------
      LOOP:  cpu time    4.6993: real time    4.7050

 eigenvalue-minimisations  :  1356
 total energy-change (2. order) :-0.4532950E+03  (-0.2841186E+02)
 number of electron     206.0000000 magnetization 
 augmentation part        5.5093740 magnetization 

 Broyden mixing:
  rms(total) = 0.49282E-01    rms(broyden)= 0.49248E-01
  rms(prec ) = 0.50697E-01
  weight for this iteration     100.00

 Free energy of the ion-electron system (eV)
  ---------------------------------------------------
  alpha Z        PSCENC =        82.54348252
  Ewald energy   TEWEN  =     34516.50306006
  -Hartree energ DENC   =    -41034.81471889
  -exchange      EXHF   =         0.00000000
  -V(xc)+E(xc)   XCENC  =       721.37979504
  PAW double counting   =     22781.19595426   -22817.52509957
  entropy T*S    EENTRO =        -0.00051886
  eigenvalues    EBANDS =     -2491.20135106
  atomic energy  EATOM  =      7788.62438962
  Solvation  Ediel_sol  =         0.00000000
  ---------------------------------------------------
  free energy    TOTEN  =      -453.29500689 eV

  energy without entropy =     -453.29448802  energy(sigma->0) =     -453.29474746


--------------------------------------------------------------------------------------------------------




--------------------------------------- Iteration      1(   2)  ---------------------------------------


    POTLOK:  cpu time    0.0973: real time    0.0997
    SETDIJ:  cpu time    0.0803: real time    0.0815
    EDDIAG:  cpu time    0.8758: real time    0.8764
  RMM-DIIS:  cpu time    3.7494: real time    3.7548
    ORTHCH:  cpu time    0.0406: real time    0.0407
       DOS:  cpu time    0.0004: real time    0.0004
    CHARGE:  cpu time    0.3880: real time    0.3880
    MIXING:  cpu time    0.0062: real time    0.0062
    --------------------------------------------
      LOOP:  cpu time    5.2378: real time    5.2477

 eigenvalue-minimisations  :  1415
 total energy-change (2. order) :-0.9878337E+00  (-0.9901385E+00)
 number of electron     206.0000000 magnetization 
 augmentation part        5.5408946 magnetization 

 Broyden mixing:
  rms(total) = 0.19995E-01    rms(broyden)= 0.19939E-01
  rms(prec ) = 0.21339E-01
  weight for this iteration     100.00

 eigenvalues of (default mixing * dielectric matrix)
  average eigenvalue GAMMA=   0.7383
  0.7383

 Free energy of the ion-electron system (eV)
  ---------------------------------------------------
  alpha Z        PSCENC =        82.54348252
  Ewald energy   TEWEN  =     34516.50306006
  -Hartree energ DENC   =    -41032.28514042
  -exchange      EXHF   =         0.00000000
  -V(xc)+E(xc)   XCENC  =       721.27248320
  PAW double counting   =     22841.88269734   -22878.16054049
  entropy T*S    EENTRO =        -0.00009648
  eigenvalues    EBANDS =     -2494.66317591
  atomic energy  EATOM  =      7788.62438962
  Solvation  Ediel_sol  =         0.00000000
  ---------------------------------------------------
  free energy    TOTEN  =      -454.28284056 eV

  energy without entropy =     -454.28274408  energy(sigma->0) =     -454.28279232


--------------------------------------------------------------------------------------------------------




--------------------------------------- Iteration      1(   3)  ---------------------------------------


    POTLOK:  cpu time    0.0982: real time    0.1005
    SETDIJ:  cpu time    0.0807: real time    0.0826
    EDDIAG:  cpu time    0.8786: real time    0.8794
  RMM-DIIS:  cpu time    4.1406: real time    4.1447
    ORTHCH:  cpu time    0.0408: real time    0.0409
       DOS:  cpu time    0.0004: real time    0.0004
    CHARGE:  cpu time    0.3872: real time    0.3872
    MIXING:  cpu time    0.0046: real time    0.0046
    --------------------------------------------
      LOOP:  cpu time    5.6309: real time    5.6403

 eigenvalue-minimisations  :  1568
 total energy-change (2. order) :-0.5232418E-01  (-0.5853973E-01)
 number of electron     206.0000000 magnetization 
 augmentation part        5.5434248 magnetization 

 Broyden mixing:
  rms(total) = 0.15121E-01    rms(broyden)= 0.15107E-01
  rms(prec ) = 0.15658E-01
  weight for this iteration     100.00

 eigenvalues of (default mixing * dielectric matrix)
  average eigenvalue GAMMA=   0.6641
  0.6641  0.6641

 Free energy of the ion-electron system (eV)
  ---------------------------------------------------
  alpha Z        PSCENC =        82.54348252
  Ewald energy   TEWEN  =     34516.50306006
  -Hartree energ DENC   =    -41032.97893400
  -exchange      EXHF   =         0.00000000
  -V(xc)+E(xc)   XCENC  =       721.30483572
  PAW double counting   =     22830.76024325   -22867.05278469
  entropy T*S    EENTRO =        -0.00012554
  eigenvalues    EBANDS =     -2494.03933168
  atomic energy  EATOM  =      7788.62438962
  Solvation  Ediel_sol  =         0.00000000
  ---------------------------------------------------
  free energy    TOTEN  =      -454.33516474 eV

  energy without entropy =     -454.33503920  energy(sigma->0) =     -454.33510197


--------------------------------------------------------------------------------------------------------




--------------------------------------- Iteration      1(   4)  ---------------------------------------


    POTLOK:  cpu time    0.0974: real time    0.0987
    SETDIJ:  cpu time    0.0888: real time    0.0889
    EDDIAG:  cpu time    0.8732: real time    0.8741
  RMM-DIIS:  cpu time    4.1143: real time    4.1175
    ORTHCH:  cpu time    0.0490: real time    0.0491
       DOS:  cpu time    0.0004: real time    0.0004
    CHARGE:  cpu time    0.3858: real time    0.3863
    MIXING:  cpu time    0.0059: real time    0.0059
    --------------------------------------------
      LOOP:  cpu time    5.6149: real time    5.6208

 eigenvalue-minimisations  :  1564
 total energy-change (2. order) :-0.3886225E-02  (-0.4063202E-02)
 number of electron     206.0000000 magnetization 
 augmentation part        5.5459366 magnetization 

 Broyden mixing:
  rms(total) = 0.15166E-01    rms(broyden)= 0.15165E-01
  rms(prec ) = 0.15627E-01
  weight for this iteration     100.00

 eigenvalues of (default mixing * dielectric matrix)
  average eigenvalue GAMMA=   0.9079
  1.0924  1.0924  0.5388

 Free energy of the ion-electron system (eV)
  ---------------------------------------------------
  alpha Z        PSCENC =        82.54348252
  Ewald energy   TEWEN  =     34516.50306006
  -Hartree energ DENC   =    -41033.30210553
  -exchange      EXHF   =         0.00000000
  -V(xc)+E(xc)   XCENC  =       721.31933815
  PAW double counting   =     22822.46312661   -22858.76295918
  entropy T*S    EENTRO =        -0.00010952
  eigenvalues    EBANDS =     -2493.72727369
  atomic energy  EATOM  =      7788.62438962
  Solvation  Ediel_sol  =         0.00000000
  ---------------------------------------------------
  free energy    TOTEN  =      -454.33905096 eV

  energy without entropy =     -454.33894144  energy(sigma->0) =     -454.33899620


--------------------------------------------------------------------------------------------------------




--------------------------------------- Iteration      1(   5)  ---------------------------------------


    POTLOK:  cpu time    0.0977: real time    0.0979
    SETDIJ:  cpu time    0.0796: real time    0.0796
    EDDIAG:  cpu time    0.8739: real time    0.8749
  RMM-DIIS:  cpu time    4.0234: real time    4.0268
    ORTHCH:  cpu time    0.0416: real time    0.0416
       DOS:  cpu time    0.0004: real time    0.0004
    CHARGE:  cpu time    0.3883: real time    0.3885
    MIXING:  cpu time    0.0047: real time    0.0047
    --------------------------------------------
      LOOP:  cpu time    5.5095: real time    5.5144

 eigenvalue-minimisations  :  1527
 total energy-change (2. order) :-0.1356998E-03  (-0.3068875E-03)
 number of electron     206.0000000 magnetization 
 augmentation part        5.5451265 magnetization 

 Broyden mixing:
  rms(total) = 0.76786E-02    rms(broyden)= 0.76782E-02
  rms(prec ) = 0.78797E-02
  weight for this iteration     100.00

 eigenvalues of (default mixing * dielectric matrix)
  average eigenvalue GAMMA=   1.1461
  1.5262  1.5262  0.5666  0.9655

 Free energy of the ion-electron system (eV)
  ---------------------------------------------------
  alpha Z        PSCENC =        82.54348252
  Ewald energy   TEWEN  =     34516.50306006
  -Hartree energ DENC   =    -41034.04577869
  -exchange      EXHF   =         0.00000000
  -V(xc)+E(xc)   XCENC  =       721.35041832
  PAW double counting   =     22799.91101022   -22836.22700441
  entropy T*S    EENTRO =        -0.00011213
  eigenvalues    EBANDS =     -2492.99865216
  atomic energy  EATOM  =      7788.62438962
  Solvation  Ediel_sol  =         0.00000000
  ---------------------------------------------------
  free energy    TOTEN  =      -454.33918666 eV

  energy without entropy =     -454.33907453  energy(sigma->0) =     -454.33913060


--------------------------------------------------------------------------------------------------------




--------------------------------------- Iteration      1(   6)  ---------------------------------------


    POTLOK:  cpu time    0.0985: real time    0.1003
    SETDIJ:  cpu time    0.0862: real time    0.0876
    EDDIAG:  cpu time    0.8734: real time    0.8751
  RMM-DIIS:  cpu time    4.0085: real time    4.0118
    ORTHCH:  cpu time    0.0407: real time    0.0407
       DOS:  cpu time    0.0004: real time    0.0004
    CHARGE:  cpu time    0.3875: real time    0.3881
    MIXING:  cpu time    0.0055: real time    0.0055
    --------------------------------------------
      LOOP:  cpu time    5.5007: real time    5.5095

 eigenvalue-minimisations  :  1518
 total energy-change (2. order) :-0.1550131E-04  (-0.5173774E-04)
 number of electron     206.0000000 magnetization 
 augmentation part        5.5444169 magnetization 

 Broyden mixing:
  rms(total) = 0.10083E-02    rms(broyden)= 0.10052E-02
  rms(prec ) = 0.10527E-02
  weight for this iteration     100.00

 eigenvalues of (default mixing * dielectric matrix)
  average eigenvalue GAMMA=   1.2131
  2.1309  1.2037  1.2037  0.9630  0.5644

 Free energy of the ion-electron system (eV)
  ---------------------------------------------------
  alpha Z        PSCENC =        82.54348252
  Ewald energy   TEWEN  =     34516.50306006
  -Hartree energ DENC   =    -41034.80332709
  -exchange      EXHF   =         0.00000000
  -V(xc)+E(xc)   XCENC  =       721.38201939
  PAW double counting   =     22777.33450238   -22813.66599965
  entropy T*S    EENTRO =        -0.00011382
  eigenvalues    EBANDS =     -2492.25721558
  atomic energy  EATOM  =      7788.62438962
  Solvation  Ediel_sol  =         0.00000000
  ---------------------------------------------------
  free energy    TOTEN  =      -454.33920216 eV

  energy without entropy =     -454.33908834  energy(sigma->0) =     -454.33914525


--------------------------------------------------------------------------------------------------------




--------------------------------------- Iteration      1(   7)  ---------------------------------------


    POTLOK:  cpu time    0.0975: real time    0.0977
    SETDIJ:  cpu time    0.0797: real time    0.0797
    EDDIAG:  cpu time    0.8870: real time    0.8883
  RMM-DIIS:  cpu time    3.0097: real time    3.0121
    ORTHCH:  cpu time    0.0412: real time    0.0413
       DOS:  cpu time    0.0004: real time    0.0004
    CHARGE:  cpu time    0.4004: real time    0.4006
    MIXING:  cpu time    0.0052: real time    0.0052
    --------------------------------------------
      LOOP:  cpu time    4.5212: real time    4.5252

 eigenvalue-minimisations  :  1075
 total energy-change (2. order) :-0.1401016E-04  (-0.3109220E-05)
 number of electron     206.0000000 magnetization 
 augmentation part        5.5442399 magnetization 

 Broyden mixing:
  rms(total) = 0.13603E-02    rms(broyden)= 0.13599E-02
  rms(prec ) = 0.14120E-02
  weight for this iteration     100.00

 eigenvalues of (default mixing * dielectric matrix)
  average eigenvalue GAMMA=   1.3069
  2.2383  1.5219  1.5219  0.9989  0.9989  0.5615

 Free energy of the ion-electron system (eV)
  ---------------------------------------------------
  alpha Z        PSCENC =        82.54348252
  Ewald energy   TEWEN  =     34516.50306006
  -Hartree energ DENC   =    -41034.90756935
  -exchange      EXHF   =         0.00000000
  -V(xc)+E(xc)   XCENC  =       721.38594550
  PAW double counting   =     22776.12163640   -22812.45435681
  entropy T*S    EENTRO =        -0.00011493
  eigenvalues    EBANDS =     -2492.15568918
  atomic energy  EATOM  =      7788.62438962
  Solvation  Ediel_sol  =         0.00000000
  ---------------------------------------------------
  free energy    TOTEN  =      -454.33921617 eV

  energy without entropy =     -454.33910124  energy(sigma->0) =     -454.33915871


--------------------------------------------------------------------------------------------------------




--------------------------------------- Iteration      1(   8)  ---------------------------------------


    POTLOK:  cpu time    0.0986: real time    0.0988
    SETDIJ:  cpu time    0.0863: real time    0.0863
    EDDIAG:  cpu time    0.8860: real time    0.8865
  RMM-DIIS:  cpu time    2.6538: real time    2.6590
    ORTHCH:  cpu time    0.0410: real time    0.0409
       DOS:  cpu time    0.0004: real time    0.0004
    --------------------------------------------
      LOOP:  cpu time    3.7660: real time    3.7719

 eigenvalue-minimisations  :   933
 total energy-change (2. order) :-0.2860030E-05  (-0.1026747E-05)
 number of electron     206.0000000 magnetization 
 augmentation part        5.5442399 magnetization 

 Free energy of the ion-electron system (eV)
  ---------------------------------------------------
  alpha Z        PSCENC =        82.54348252
  Ewald energy   TEWEN  =     34516.50306006
  -Hartree energ DENC   =    -41034.77763562
  -exchange      EXHF   =         0.00000000
  -V(xc)+E(xc)   XCENC  =       721.37993140
  PAW double counting   =     22780.89214477   -22817.22145363
  entropy T*S    EENTRO =        -0.00011463
  eigenvalues    EBANDS =     -2492.28302352
  atomic energy  EATOM  =      7788.62438962
  Solvation  Ediel_sol  =         0.00000000
  ---------------------------------------------------
  free energy    TOTEN  =      -454.33921903 eV

  energy without entropy =     -454.33910441  energy(sigma->0) =     -454.33916172


--------------------------------------------------------------------------------------------------------




 average (electrostatic) potential at core
  the test charge radii are     0.6991  0.7215
  (the norm of the test charge is              1.0000)
       1 -58.2604       2 -58.2607       3 -58.2038       4 -58.0588       5 -58.2042
       6 -58.2606       7 -58.2765       8 -58.1331       9 -58.1337      10 -58.2764
      11 -58.2051      12 -58.1338      13 -60.6874      14 -58.1332      15 -58.2032
      16 -58.0592      17 -58.1342      18 -58.1329      19 -58.0581      20 -58.0653
      21 -58.2052      22 -58.2764      23 -58.2028      24 -58.0648      25 -58.0660
      26 -58.3823      27 -58.2928      28 -58.2223      29 -58.2222      30 -58.2931
      31 -58.2947      32 -58.3148      33 -58.8122      34 -58.3152      35 -58.2912
      36 -58.2226      37 -58.8127      38 -58.8113      39 -58.2217      40 -58.2235
      41 -58.2225      42 -58.3150      43 -58.2218      44 -58.1640      45 -58.1645
      46 -58.2948      47 -58.2910      48 -58.2225      49 -58.1643      50 -58.2246
      51 -81.5750
 
 
 
 E-fermi :  -3.0175     XC(G=0):  -2.2141     alpha+bet : -1.9409


 k-point     1 :       0.0000    0.0000    0.0000
  band No.  band energies     occupation 
      1     -31.7407      2.00000
      2     -22.2713      2.00000
      3     -21.5035      2.00000
      4     -21.5032      2.00000
      5     -21.3966      2.00000
      6     -21.3946      2.00000
      7     -21.3921      2.00000
      8     -20.8745      2.00000
      9     -19.8769      2.00000
     10     -19.8769      2.00000
     11     -19.5497      2.00000
     12     -19.5492      2.00000
     13     -19.5392      2.00000
     14     -19.1916      2.00000
     15     -18.9028      2.00000
     16     -18.8997      2.00000
     17     -18.6456      2.00000
     18     -18.6433      2.00000
     19     -18.6415      2.00000
     20     -17.8845      2.00000
     21     -17.0218      2.00000
     22     -17.0217      2.00000
     23     -16.4781      2.00000
     24     -16.4605      2.00000
     25     -16.4564      2.00000
     26     -16.0501      2.00000
     27     -15.9978      2.00000
     28     -15.9957      2.00000
     29     -15.4978      2.00000
     30     -15.4977      2.00000
     31     -15.4932      2.00000
     32     -15.0899      2.00000
     33     -14.6311      2.00000
     34     -14.6281      2.00000
     35     -14.1500      2.00000
     36     -14.1500      2.00000
     37     -14.1434      2.00000
     38     -13.9649      2.00000
     39     -12.9918      2.00000
     40     -12.9911      2.00000
     41     -12.0315      2.00000
     42     -11.7697      2.00000
     43     -11.7620      2.00000
     44     -11.7609      2.00000
     45     -11.6915      2.00000
     46     -11.6898      2.00000
     47     -11.6519      2.00000
     48     -11.6516      2.00000
     49     -11.6498      2.00000
     50     -11.6472      2.00000
     51     -10.8040      2.00000
     52     -10.8005      2.00000
     53     -10.4288      2.00000
     54     -10.3348      2.00000
     55     -10.2909      2.00000
     56     -10.2873      2.00000
     57     -10.2709      2.00000
     58     -10.0781      2.00000
     59      -9.6868      2.00000
     60      -9.6848      2.00000
     61      -9.3261      2.00000
     62      -9.3255      2.00000
     63      -9.3002      2.00000
     64      -9.2797      2.00000
     65      -9.2795      2.00000
     66      -9.0463      2.00000
     67      -9.0149      2.00000
     68      -8.9952      2.00000
     69      -8.9489      2.00000
     70      -8.9409      2.00000
     71      -8.9407      2.00000
     72      -8.9398      2.00000
     73      -8.9201      2.00000
     74      -8.9182      2.00000
     75      -8.8943      2.00000
     76      -8.4367      2.00000
     77      -7.8014      2.00000
     78      -7.7995      2.00000
     79      -7.3257      2.00000
     80      -7.3228      2.00000
     81      -7.3103      2.00000
     82      -7.3056      2.00000
     83      -7.3005      2.00000
     84      -7.3000      2.00000
     85      -7.1615      2.00000
     86      -7.1609      2.00000
     87      -7.1552      2.00000
     88      -6.7517      2.00000
     89      -6.5064      2.00000
     90      -6.5040      2.00000
     91      -6.2671      2.00000
     92      -6.2467      2.00000
     93      -6.2464      2.00000
     94      -5.9275      2.00000
     95      -5.9207      2.00000
     96      -5.1959      2.00000
     97      -4.7638      2.00000
     98      -4.7636      2.00000
     99      -4.2708      2.00000
    100      -4.2672      2.00000
    101      -4.2659      2.00000
    102      -3.2150      2.00000
    103      -3.2149      2.00000
    104      -2.9165      0.00430
    105      -1.4615      0.00000
    106      -1.4577      0.00000
    107      -1.4568      0.00000
    108      -0.9918      0.00000
    109      -0.9910      0.00000
    110      -0.5432      0.00000
    111       0.4165      0.00000
    112       0.4215      0.00000
    113       0.4221      0.00000
    114       0.5620      0.00000
    115       0.8425      0.00000
    116       0.8441      0.00000
    117       1.2936      0.00000
    118       1.3392      0.00000
    119       1.6737      0.00000
    120       1.8019      0.00000
    121       1.8028      0.00000
    122       1.8040      0.00000
    123       1.8268      0.00000
    124       1.8273      0.00000
    125       2.0297      0.00000
    126       2.1765      0.00000
    127       2.1787      0.00000
    128       2.1798      0.00000
    129       2.3467      0.00000
    130       2.3471      0.00000
    131       2.5980      0.00000
    132       2.6363      0.00000

 k-point     2 :       0.3333    0.0000    0.0000
  band No.  band energies     occupation 
      1     -31.7408      2.00000
      2     -22.1895      2.00000
      3     -21.8687      2.00000
      4     -21.6616      2.00000
      5     -21.4558      2.00000
      6     -21.0352      2.00000
      7     -20.8962      2.00000
      8     -20.7287      2.00000
      9     -20.4205      2.00000
     10     -20.1617      2.00000
     11     -19.7862      2.00000
     12     -19.6992      2.00000
     13     -19.3277      2.00000
     14     -19.2440      2.00000
     15     -19.0627      2.00000
     16     -18.5934      2.00000
     17     -18.4575      2.00000
     18     -18.1219      2.00000
     19     -18.0617      2.00000
     20     -17.5917      2.00000
     21     -17.4983      2.00000
     22     -17.2997      2.00000
     23     -17.2775      2.00000
     24     -16.8517      2.00000
     25     -16.6587      2.00000
     26     -16.1765      2.00000
     27     -15.9784      2.00000
     28     -15.8497      2.00000
     29     -15.2986      2.00000
     30     -15.1688      2.00000
     31     -15.1349      2.00000
     32     -14.8857      2.00000
     33     -14.7819      2.00000
     34     -14.4776      2.00000
     35     -14.4564      2.00000
     36     -13.7682      2.00000
     37     -13.7604      2.00000
     38     -13.1966      2.00000
     39     -13.0903      2.00000
     40     -12.9348      2.00000
     41     -12.9009      2.00000
     42     -12.5863      2.00000
     43     -12.5501      2.00000
     44     -12.3900      2.00000
     45     -12.0231      2.00000
     46     -11.6646      2.00000
     47     -11.4477      2.00000
     48     -11.2997      2.00000
     49     -11.1222      2.00000
     50     -10.9145      2.00000
     51     -10.8505      2.00000
     52     -10.5822      2.00000
     53     -10.5337      2.00000
     54     -10.2848      2.00000
     55     -10.2374      2.00000
     56     -10.1615      2.00000
     57     -10.0473      2.00000
     58      -9.8521      2.00000
     59      -9.8209      2.00000
     60      -9.6533      2.00000
     61      -9.6092      2.00000
     62      -9.5611      2.00000
     63      -9.5273      2.00000
     64      -9.3715      2.00000
     65      -9.3403      2.00000
     66      -9.2586      2.00000
     67      -9.1761      2.00000
     68      -9.1010      2.00000
     69      -9.0818      2.00000
     70      -8.8646      2.00000
     71      -8.7184      2.00000
     72      -8.6634      2.00000
     73      -8.5048      2.00000
     74      -8.4044      2.00000
     75      -8.2867      2.00000
     76      -8.1343      2.00000
     77      -8.0946      2.00000
     78      -8.0666      2.00000
     79      -7.9732      2.00000
     80      -7.8071      2.00000
     81      -7.6206      2.00000
     82      -7.3591      2.00000
     83      -7.3362      2.00000
     84      -7.2620      2.00000
     85      -7.1980      2.00000
     86      -6.9204      2.00000
     87      -6.8743      2.00000
     88      -6.6935      2.00000
     89      -6.5917      2.00000
     90      -6.3468      2.00000
     91      -6.1886      2.00000
     92      -6.0737      2.00000
     93      -5.9206      2.00000
     94      -5.7400      2.00000
     95      -5.6406      2.00000
     96      -5.3241      2.00000
     97      -5.1153      2.00000
     98      -4.9692      2.00000
     99      -4.9230      2.00000
    100      -4.2689      2.00000
    101      -4.1691      2.00000
    102      -3.3373      2.00000
    103      -3.1373      1.99930
    104      -2.8044      0.00000
    105      -1.5917      0.00000
    106      -1.4245      0.00000
    107      -0.8379      0.00000
    108      -0.8196      0.00000
    109      -0.7065      0.00000
    110      -0.6682      0.00000
    111      -0.1286      0.00000
    112      -0.0063      0.00000
    113       0.2919      0.00000
    114       0.7048      0.00000
    115       0.7264      0.00000
    116       1.0991      0.00000
    117       1.1772      0.00000
    118       1.3639      0.00000
    119       1.4624      0.00000
    120       1.5376      0.00000
    121       1.5685      0.00000
    122       1.6374      0.00000
    123       1.8232      0.00000
    124       1.9117      0.00000
    125       2.0388      0.00000
    126       2.2216      0.00000
    127       2.2643      0.00000
    128       2.3287      0.00000
    129       2.3392      0.00000
    130       2.3958      0.00000
    131       2.4571      0.00000
    132       2.7957      0.00000

 k-point     3 :       0.0000    0.3333    0.0000
  band No.  band energies     occupation 
      1     -31.7408      2.00000
      2     -22.1892      2.00000
      3     -21.8695      2.00000
      4     -21.6616      2.00000
      5     -21.4548      2.00000
      6     -21.0350      2.00000
      7     -20.8974      2.00000
      8     -20.7277      2.00000
      9     -20.4204      2.00000
     10     -20.1625      2.00000
     11     -19.7873      2.00000
     12     -19.6994      2.00000
     13     -19.3267      2.00000
     14     -19.2431      2.00000
     15     -19.0620      2.00000
     16     -18.5931      2.00000
     17     -18.4582      2.00000
     18     -18.1217      2.00000
     19     -18.0632      2.00000
     20     -17.5912      2.00000
     21     -17.4981      2.00000
     22     -17.3013      2.00000
     23     -17.2766      2.00000
     24     -16.8518      2.00000
     25     -16.6588      2.00000
     26     -16.1765      2.00000
     27     -15.9782      2.00000
     28     -15.8479      2.00000
     29     -15.2986      2.00000
     30     -15.1701      2.00000
     31     -15.1345      2.00000
     32     -14.8852      2.00000
     33     -14.7820      2.00000
     34     -14.4784      2.00000
     35     -14.4563      2.00000
     36     -13.7680      2.00000
     37     -13.7598      2.00000
     38     -13.1964      2.00000
     39     -13.0897      2.00000
     40     -12.9345      2.00000
     41     -12.9047      2.00000
     42     -12.5855      2.00000
     43     -12.5502      2.00000
     44     -12.3903      2.00000
     45     -12.0224      2.00000
     46     -11.6638      2.00000
     47     -11.4477      2.00000
     48     -11.2964      2.00000
     49     -11.1220      2.00000
     50     -10.9146      2.00000
     51     -10.8503      2.00000
     52     -10.5846      2.00000
     53     -10.5330      2.00000
     54     -10.2857      2.00000
     55     -10.2373      2.00000
     56     -10.1614      2.00000
     57     -10.0493      2.00000
     58      -9.8528      2.00000
     59      -9.8206      2.00000
     60      -9.6551      2.00000
     61      -9.6084      2.00000
     62      -9.5610      2.00000
     63      -9.5267      2.00000
     64      -9.3718      2.00000
     65      -9.3400      2.00000
     66      -9.2599      2.00000
     67      -9.1760      2.00000
     68      -9.0999      2.00000
     69      -9.0828      2.00000
     70      -8.8635      2.00000
     71      -8.7142      2.00000
     72      -8.6646      2.00000
     73      -8.5043      2.00000
     74      -8.4025      2.00000
     75      -8.2875      2.00000
     76      -8.1340      2.00000
     77      -8.0958      2.00000
     78      -8.0664      2.00000
     79      -7.9716      2.00000
     80      -7.8078      2.00000
     81      -7.6206      2.00000
     82      -7.3605      2.00000
     83      -7.3363      2.00000
     84      -7.2660      2.00000
     85      -7.1979      2.00000
     86      -6.9204      2.00000
     87      -6.8735      2.00000
     88      -6.6921      2.00000
     89      -6.5915      2.00000
     90      -6.3494      2.00000
     91      -6.1861      2.00000
     92      -6.0728      2.00000
     93      -5.9213      2.00000
     94      -5.7398      2.00000
     95      -5.6411      2.00000
     96      -5.3227      2.00000
     97      -5.1151      2.00000
     98      -4.9702      2.00000
     99      -4.9228      2.00000
    100      -4.2701      2.00000
    101      -4.1690      2.00000
    102      -3.3369      2.00000
    103      -3.1371      1.99928
    104      -2.8042      0.00000
    105      -1.5915      0.00000
    106      -1.4239      0.00000
    107      -0.8405      0.00000
    108      -0.8190      0.00000
    109      -0.7063      0.00000
    110      -0.6681      0.00000
    111      -0.1288      0.00000
    112      -0.0063      0.00000
    113       0.2925      0.00000
    114       0.7049      0.00000
    115       0.7267      0.00000
    116       1.0986      0.00000
    117       1.1766      0.00000
    118       1.3645      0.00000
    119       1.4629      0.00000
    120       1.5379      0.00000
    121       1.5692      0.00000
    122       1.6381      0.00000
    123       1.8238      0.00000
    124       1.9124      0.00000
    125       2.0399      0.00000
    126       2.2264      0.00000
    127       2.2660      0.00000
    128       2.3354      0.00000
    129       2.4244      0.00000
    130       2.7299      0.00000
    131       3.2548      0.00000
    132       3.6280      0.00000

 k-point     4 :       0.3333    0.3333    0.0000
  band No.  band energies     occupation 
      1     -31.7408      2.00000
      2     -22.1890      2.00000
      3     -21.8703      2.00000
      4     -21.6615      2.00000
      5     -21.4539      2.00000
      6     -21.0348      2.00000
      7     -20.8987      2.00000
      8     -20.7267      2.00000
      9     -20.4203      2.00000
     10     -20.1633      2.00000
     11     -19.7882      2.00000
     12     -19.6997      2.00000
     13     -19.3255      2.00000
     14     -19.2423      2.00000
     15     -19.0613      2.00000
     16     -18.5928      2.00000
     17     -18.4589      2.00000
     18     -18.1213      2.00000
     19     -18.0648      2.00000
     20     -17.5907      2.00000
     21     -17.4980      2.00000
     22     -17.3024      2.00000
     23     -17.2761      2.00000
     24     -16.8518      2.00000
     25     -16.6588      2.00000
     26     -16.1765      2.00000
     27     -15.9781      2.00000
     28     -15.8462      2.00000
     29     -15.2987      2.00000
     30     -15.1715      2.00000
     31     -15.1341      2.00000
     32     -14.8846      2.00000
     33     -14.7822      2.00000
     34     -14.4792      2.00000
     35     -14.4562      2.00000
     36     -13.7671      2.00000
     37     -13.7599      2.00000
     38     -13.1962      2.00000
     39     -13.0892      2.00000
     40     -12.9343      2.00000
     41     -12.9085      2.00000
     42     -12.5847      2.00000
     43     -12.5504      2.00000
     44     -12.3907      2.00000
     45     -12.0217      2.00000
     46     -11.6629      2.00000
     47     -11.4478      2.00000
     48     -11.2932      2.00000
     49     -11.1219      2.00000
     50     -10.9146      2.00000
     51     -10.8502      2.00000
     52     -10.5870      2.00000
     53     -10.5323      2.00000
     54     -10.2867      2.00000
     55     -10.2371      2.00000
     56     -10.1613      2.00000
     57     -10.0513      2.00000
     58      -9.8535      2.00000
     59      -9.8204      2.00000
     60      -9.6568      2.00000
     61      -9.6077      2.00000
     62      -9.5609      2.00000
     63      -9.5260      2.00000
     64      -9.3720      2.00000
     65      -9.3397      2.00000
     66      -9.2612      2.00000
     67      -9.1759      2.00000
     68      -9.0987      2.00000
     69      -9.0840      2.00000
     70      -8.8623      2.00000
     71      -8.7100      2.00000
     72      -8.6659      2.00000
     73      -8.5039      2.00000
     74      -8.4006      2.00000
     75      -8.2883      2.00000
     76      -8.1336      2.00000
     77      -8.0970      2.00000
     78      -8.0662      2.00000
     79      -7.9700      2.00000
     80      -7.8085      2.00000
     81      -7.6206      2.00000
     82      -7.3620      2.00000
     83      -7.3364      2.00000
     84      -7.2699      2.00000
     85      -7.1979      2.00000
     86      -6.9202      2.00000
     87      -6.8729      2.00000
     88      -6.6906      2.00000
     89      -6.5914      2.00000
     90      -6.3519      2.00000
     91      -6.1837      2.00000
     92      -6.0718      2.00000
     93      -5.9221      2.00000
     94      -5.7396      2.00000
     95      -5.6415      2.00000
     96      -5.3213      2.00000
     97      -5.1149      2.00000
     98      -4.9711      2.00000
     99      -4.9226      2.00000
    100      -4.2712      2.00000
    101      -4.1690      2.00000
    102      -3.3365      2.00000
    103      -3.1369      1.99927
    104      -2.8039      0.00000
    105      -1.5912      0.00000
    106      -1.4233      0.00000
    107      -0.8428      0.00000
    108      -0.8189      0.00000
    109      -0.7059      0.00000
    110      -0.6680      0.00000
    111      -0.1291      0.00000
    112      -0.0063      0.00000
    113       0.2932      0.00000
    114       0.7052      0.00000
    115       0.7270      0.00000
    116       1.0985      0.00000
    117       1.1764      0.00000
    118       1.3660      0.00000
    119       1.4637      0.00000
    120       1.5595      0.00000
    121       1.5742      0.00000
    122       1.7198      0.00000
    123       1.8248      0.00000
    124       2.1702      0.00000
    125       2.3347      0.00000
    126       2.3958      0.00000
    127       2.6108      0.00000
    128       2.7595      0.00000
    129       2.8323      0.00000
    130       3.2035      0.00000
    131       3.5969      0.00000
    132       4.1796      0.00000

 k-point     5 :      -0.3333    0.3333    0.0000
  band No.  band energies     occupation 
      1     -31.7409      2.00000
      2     -22.0807      2.00000
      3     -22.0078      2.00000
      4     -21.8020      2.00000
      5     -21.1724      2.00000
      6     -21.1508      2.00000
      7     -20.8677      2.00000
      8     -20.4135      2.00000
      9     -20.3391      2.00000
     10     -20.1727      2.00000
     11     -20.1504      2.00000
     12     -20.1431      2.00000
     13     -19.5672      2.00000
     14     -18.8266      2.00000
     15     -18.6749      2.00000
     16     -18.3730      2.00000
     17     -18.3493      2.00000
     18     -18.3362      2.00000
     19     -17.9304      2.00000
     20     -17.8018      2.00000
     21     -17.6018      2.00000
     22     -17.2618      2.00000
     23     -17.1535      2.00000
     24     -17.1208      2.00000
     25     -16.5434      2.00000
     26     -16.4380      2.00000
     27     -16.2846      2.00000
     28     -15.8088      2.00000
     29     -15.6292      2.00000
     30     -15.1758      2.00000
     31     -14.9698      2.00000
     32     -14.6528      2.00000
     33     -13.9605      2.00000
     34     -13.9399      2.00000
     35     -13.9246      2.00000
     36     -13.8739      2.00000
     37     -13.8642      2.00000
     38     -13.7923      2.00000
     39     -13.6750      2.00000
     40     -13.4951      2.00000
     41     -13.0381      2.00000
     42     -12.4750      2.00000
     43     -12.2542      2.00000
     44     -12.0717      2.00000
     45     -11.8238      2.00000
     46     -11.7735      2.00000
     47     -11.5637      2.00000
     48     -11.5460      2.00000
     49     -11.5228      2.00000
     50     -10.9296      2.00000
     51     -10.8181      2.00000
     52     -10.5306      2.00000
     53     -10.2094      2.00000
     54     -10.2010      2.00000
     55     -10.1944      2.00000
     56     -10.0953      2.00000
     57     -10.0530      2.00000
     58     -10.0221      2.00000
     59      -9.9028      2.00000
     60      -9.7514      2.00000
     61      -9.7487      2.00000
     62      -9.5642      2.00000
     63      -9.4409      2.00000
     64      -9.4076      2.00000
     65      -9.1995      2.00000
     66      -9.0467      2.00000
     67      -9.0343      2.00000
     68      -8.9015      2.00000
     69      -8.8851      2.00000
     70      -8.6893      2.00000
     71      -8.6377      2.00000
     72      -8.6357      2.00000
     73      -8.6245      2.00000
     74      -8.5815      2.00000
     75      -8.3763      2.00000
     76      -8.2524      2.00000
     77      -8.1649      2.00000
     78      -8.0335      2.00000
     79      -7.9841      2.00000
     80      -7.8801      2.00000
     81      -7.8580      2.00000
     82      -7.8549      2.00000
     83      -7.2263      2.00000
     84      -7.1848      2.00000
     85      -7.1270      2.00000
     86      -6.8867      2.00000
     87      -6.7222      2.00000
     88      -6.6124      2.00000
     89      -6.4600      2.00000
     90      -6.2678      2.00000
     91      -6.1028      2.00000
     92      -5.9170      2.00000
     93      -5.9116      2.00000
     94      -5.8975      2.00000
     95      -5.4524      2.00000
     96      -5.4256      2.00000
     97      -5.1223      2.00000
     98      -5.0144      2.00000
     99      -4.9805      2.00000
    100      -4.9579      2.00000
    101      -3.7329      2.00000
    102      -3.4586      2.00000
    103      -3.2803      2.00000
    104      -2.3874      0.00000
    105      -2.2244      0.00000
    106      -0.9291      0.00000
    107      -0.8825      0.00000
    108      -0.8674      0.00000
    109      -0.5386      0.00000
    110      -0.2642      0.00000
    111      -0.2114      0.00000
    112       0.2517      0.00000
    113       0.2559      0.00000
    114       0.2624      0.00000
    115       0.5987      0.00000
    116       0.7914      0.00000
    117       0.9491      0.00000
    118       0.9742      0.00000
    119       1.0617      0.00000
    120       1.7336      0.00000
    121       1.7449      0.00000
    122       1.7671      0.00000
    123       1.8258      0.00000
    124       2.1111      0.00000
    125       2.1156      0.00000
    126       2.1200      0.00000
    127       2.2465      0.00000
    128       2.2483      0.00000
    129       2.3616      0.00000
    130       2.9995      0.00000
    131       3.0107      0.00000
    132       3.0359      0.00000


--------------------------------------------------------------------------------------------------------


 soft charge-density along one line, spin component           1
         0         1         2         3         4         5         6         7         8         9
 total charge-density along one line
 
 pseudopotential strength for first ion, spin component:           1
 10.222  13.594   0.000  -0.000   0.000  -0.000   0.000  -0.001
 13.594  18.077   0.000  -0.000   0.000  -0.000   0.000  -0.001
  0.000   0.000  -4.352   0.000  -0.000   8.512  -0.000   0.000
 -0.000  -0.000   0.000  -4.344   0.000  -0.000   8.502  -0.000
  0.000   0.000  -0.000   0.000  -4.352   0.000  -0.000   8.512
 -0.000  -0.000   8.512  -0.000   0.000 -18.786   0.000  -0.000
  0.000   0.000  -0.000   8.502  -0.000   0.000 -18.775   0.000
 -0.001  -0.001   0.000  -0.000   8.512  -0.000   0.000 -18.786
 total augmentation occupancy for first ion, spin component:           1
  8.388  -3.758   0.008  -0.005   0.011   0.001  -0.001   0.002
 -3.758   1.739  -0.005   0.004  -0.007  -0.001   0.000  -0.001
  0.008  -0.005   1.843  -0.001   0.002   0.175  -0.000   0.000
 -0.005   0.004  -0.001   1.224  -0.001  -0.000   0.079  -0.000
  0.011  -0.007   0.002  -0.001   1.844   0.000  -0.000   0.175
  0.001  -0.001   0.175  -0.000   0.000   0.018  -0.000   0.000
 -0.001   0.000  -0.000   0.079  -0.000  -0.000   0.005  -0.000
  0.002  -0.001   0.000  -0.000   0.175   0.000  -0.000   0.018


------------------------ aborting loop because EDIFF is reached ----------------------------------------


    CHARGE:  cpu time    0.4018: real time    0.4019
    FORLOC:  cpu time    0.0331: real time    0.0331
    FORNL :  cpu time    1.9586: real time    1.9597
    STRESS:  cpu time    3.2984: real time    3.3009
    FORCOR:  cpu time    0.1216: real time    0.1226
    FORHAR:  cpu time    0.0480: real time    0.0494
    MIXING:  cpu time    0.0038: real time    0.0038
    OFIELD:  cpu time    0.0001: real time    0.0001

  FORCE on cell =-STRESS in cart. coord.  units (eV):
  Direction    XX          YY          ZZ          XY          YZ          ZX
  --------------------------------------------------------------------------------------
  Alpha Z    82.54348    82.54348    82.54348
  Ewald   41234.43236 41234.42670-47952.37666     1.09110    -0.00009    -0.02227
  Hartree 40516.68055 40516.68058-39998.56505     0.10405    -0.00001    -0.01459
  E(xc)    -777.14838  -777.14842  -804.22619     0.00380    -0.00000     0.00000
  Local  -83988.76967-83988.76689 85337.31006    -0.97593     0.00008     0.03608
  n-local  -203.93864  -203.93840  -194.69671     0.00835     0.00000     0.00071
  augment   -12.37988   -12.37927   -14.04633    -0.00187     0.00000    -0.00003
  Kinetic  3164.13898  3164.13904  3596.32449    -0.18447     0.00003    -0.00612
  Fock        0.00000     0.00000     0.00000     0.00000     0.00000     0.00000
  -------------------------------------------------------------------------------------
  Total      15.55883    15.55683    52.26709     0.04503     0.00001    -0.00621
  in kB       9.51298     9.51176    31.95715     0.02753     0.00001    -0.00380
  external pressure =       16.99 kB  Pullay stress =        0.00 kB


 VOLUME and BASIS-vectors are now :
 -----------------------------------------------------------------------------
  energy-cutoff  :      400.00
  volume of cell :     2620.42
      direct lattice vectors                 reciprocal lattice vectors
    12.300000191  0.000000000  0.000000000     0.081300812 -0.046939053  0.000000000
     6.150000804 10.652112223  0.000000000     0.000000000  0.093878095  0.000000000
     0.000000000  0.000000000 20.000000000     0.000000000  0.000000000  0.050000000

  length of vectors
    12.300000191 12.300000191 20.000000000     0.093878095  0.093878095  0.050000000


 FORCES acting on ions
    electron-ion (+dipol)            ewald-force                    non-local-force                 convergence-correction
 -----------------------------------------------------------------------------------------------
   -.104E+01 -.354E+00 0.213E+01   0.821E+00 0.230E+00 -.209E+01   0.589E-01 0.602E-01 -.817E-01   0.299E-04 0.377E-03 -.523E-03
   0.192E+01 -.136E+01 0.214E+01   -.188E+01 0.132E+01 -.210E+01   -.110E+00 0.375E-01 -.811E-01   0.218E-03 -.655E-03 -.480E-03
   0.375E+01 0.641E+01 0.377E+01   -.379E+01 -.647E+01 -.372E+01   -.115E+00 0.784E-01 -.687E-01   -.127E-03 -.359E-03 0.171E-04
   0.213E-01 0.129E+02 0.479E+01   -.206E-01 -.131E+02 -.493E+01   -.375E-04 0.134E-01 0.111E+00   0.231E-04 -.377E-03 0.729E-04
   -.365E+01 0.644E+01 0.377E+01   0.370E+01 -.650E+01 -.372E+01   0.113E+00 0.762E-01 -.683E-01   0.343E-03 -.198E-03 0.146E-04
   -.426E+00 0.172E+01 0.214E+01   0.418E+00 -.156E+01 -.210E+01   -.452E-01 -.982E-01 -.814E-01   -.773E-03 0.159E-04 -.564E-03
   0.117E+02 0.680E+01 0.480E+01   -.114E+02 -.661E+01 -.485E+01   0.108E+00 0.660E-01 0.495E-01   -.126E-03 -.113E-03 -.582E-04
   0.209E+02 0.363E+02 0.186E+02   -.214E+02 -.371E+02 -.190E+02   0.639E+00 0.654E+00 0.546E+00   -.103E-03 -.348E-03 0.431E-04
   -.209E+02 0.362E+02 0.186E+02   0.214E+02 -.371E+02 -.190E+02   -.637E+00 0.654E+00 0.545E+00   0.528E-03 -.201E-03 0.368E-04
   -.116E+02 0.666E+01 0.480E+01   0.113E+02 -.648E+01 -.485E+01   -.108E+00 0.588E-01 0.493E-01   0.145E-03 -.170E-03 -.696E-04
   0.740E+01 0.177E-01 0.377E+01   -.748E+01 -.220E-01 -.372E+01   0.910E-02 -.142E+00 -.684E-01   -.282E-03 0.434E-03 0.453E-04
   0.418E+02 -.282E-01 0.186E+02   -.429E+02 -.140E-01 -.190E+02   0.886E+00 0.227E+00 0.546E+00   -.385E-03 0.233E-03 -.584E-05
   0.103E-01 0.155E-04 0.291E+03   -.756E-02 -.997E-04 -.346E+03   -.248E-03 0.594E-04 0.713E+01   0.107E-04 0.837E-04 -.428E-04
   -.418E+02 -.538E-01 0.186E+02   0.428E+02 0.138E-01 -.190E+02   -.885E+00 0.225E+00 0.546E+00   0.322E-03 -.228E-03 0.255E-04
   -.743E+01 -.328E-01 0.377E+01   0.750E+01 0.215E-01 -.372E+01   -.110E-01 -.132E+00 -.686E-01   0.220E-03 0.103E-03 0.965E-05
   0.111E+02 -.642E+01 0.479E+01   -.113E+02 0.654E+01 -.493E+01   0.119E-01 -.691E-02 0.111E+00   -.318E-03 0.288E-03 0.758E-04
   0.210E+02 -.362E+02 0.186E+02   -.214E+02 0.371E+02 -.190E+02   0.247E+00 -.879E+00 0.545E+00   -.987E-04 0.576E-03 -.116E-04
   -.210E+02 -.362E+02 0.186E+02   0.214E+02 0.371E+02 -.190E+02   -.248E+00 -.880E+00 0.546E+00   0.492E-04 0.411E-03 0.158E-03
   -.111E+02 -.645E+01 0.479E+01   0.113E+02 0.656E+01 -.493E+01   -.113E-01 -.654E-02 0.111E+00   0.369E-03 0.230E-03 0.794E-04
   0.545E-03 -.148E+01 0.280E+01   -.250E-03 0.156E+01 -.277E+01   0.104E-02 -.863E-01 -.150E-01   0.401E-04 0.106E-05 0.536E-04
   0.373E+01 -.638E+01 0.377E+01   -.375E+01 0.645E+01 -.372E+01   0.126E+00 0.627E-01 -.682E-01   -.162E-03 0.366E-04 -.144E-05
   -.518E-01 -.135E+02 0.480E+01   0.487E-01 0.131E+02 -.485E+01   -.584E-02 -.125E+00 0.494E-01   -.608E-04 0.150E-03 -.722E-04
   -.370E+01 -.645E+01 0.377E+01   0.373E+01 0.652E+01 -.372E+01   -.122E+00 0.573E-01 -.688E-01   0.196E-04 0.149E-03 0.327E-04
   -.127E+01 0.734E+00 0.280E+01   0.133E+01 -.771E+00 -.277E+01   -.728E-01 0.426E-01 -.151E-01   0.111E-03 -.128E-03 0.944E-04
   0.130E+01 0.749E+00 0.280E+01   -.136E+01 -.785E+00 -.277E+01   0.768E-01 0.437E-01 -.150E-01   0.390E-04 -.901E-04 0.973E-04
   -.121E+01 -.656E-02 0.652E+01   0.139E+01 0.845E-02 -.655E+01   0.149E+00 0.479E-03 0.146E+00   -.154E-02 -.163E-03 -.124E-02
   0.546E+01 0.407E+01 0.327E+01   -.531E+01 -.429E+01 -.324E+01   -.850E-01 0.205E-02 -.129E-01   0.335E-03 -.401E-03 -.127E-03
   0.610E+01 0.171E+02 0.686E+01   -.584E+01 -.171E+02 -.648E+01   -.669E-01 0.161E+00 -.122E+00   0.118E-03 -.331E-03 0.712E-04
   -.605E+01 0.171E+02 0.685E+01   0.579E+01 -.171E+02 -.648E+01   0.655E-01 0.161E+00 -.122E+00   0.616E-04 -.221E-03 0.805E-04
   -.516E+01 0.407E+01 0.327E+01   0.498E+01 -.429E+01 -.324E+01   0.575E-01 0.533E-02 -.130E-01   0.469E-03 -.793E-04 -.132E-03
   0.618E+01 0.266E+01 0.327E+01   -.627E+01 -.241E+01 -.324E+01   -.435E-01 -.760E-01 -.130E-01   -.232E-03 0.278E-03 -.144E-03
   0.283E+02 0.164E+02 0.126E+02   -.286E+02 -.165E+02 -.131E+02   -.159E+00 -.908E-01 0.145E+00   0.231E-04 -.155E-03 0.493E-04
   0.112E-01 0.878E+02 0.586E+02   -.148E-01 -.922E+02 -.663E+02   -.404E-03 -.640E+00 0.330E+01   0.145E-03 -.699E-03 -.232E-03
   -.283E+02 0.163E+02 0.126E+02   0.286E+02 -.165E+02 -.131E+02   0.158E+00 -.921E-01 0.145E+00   0.369E-03 -.444E-03 0.740E-04
   -.619E+01 0.246E+01 0.327E+01   0.631E+01 -.220E+01 -.324E+01   0.215E-01 -.512E-01 -.129E-01   -.100E-03 -.427E-03 -.181E-03
   0.179E+02 -.330E+01 0.685E+01   -.177E+02 0.348E+01 -.648E+01   0.105E+00 -.139E+00 -.122E+00   -.413E-03 0.557E-03 0.137E-03
   0.760E+02 -.439E+02 0.586E+02   -.799E+02 0.461E+02 -.663E+02   -.553E+00 0.319E+00 0.331E+01   -.414E-03 0.473E-03 -.282E-03
   -.760E+02 -.439E+02 0.586E+02   0.799E+02 0.461E+02 -.663E+02   0.555E+00 0.321E+00 0.330E+01   0.589E-03 0.281E-03 -.770E-04
   -.179E+02 -.333E+01 0.685E+01   0.177E+02 0.351E+01 -.648E+01   -.107E+00 -.137E+00 -.122E+00   0.339E-03 0.523E-03 0.824E-04
   -.138E-01 -.609E+00 0.290E+01   0.110E-01 0.845E+00 -.287E+01   0.144E-02 -.154E+00 -.514E-01   0.142E-03 0.563E-03 0.570E-05
   0.118E+02 -.138E+02 0.685E+01   -.119E+02 0.135E+02 -.648E+01   0.172E+00 -.224E-01 -.122E+00   -.421E-03 0.277E-03 0.937E-04
   -.117E-01 -.327E+02 0.126E+02   0.110E-01 0.330E+02 -.131E+02   -.161E-02 0.183E+00 0.145E+00   -.201E-03 0.364E-03 0.463E-04
   -.118E+02 -.138E+02 0.685E+01   0.119E+02 0.136E+02 -.648E+01   -.173E+00 -.240E-01 -.122E+00   0.586E-03 0.143E-03 0.163E-03
   -.384E+01 -.223E+01 0.281E+01   0.378E+01 0.219E+01 -.285E+01   -.193E-01 -.115E-01 0.128E-01   0.121E-03 -.590E-04 0.929E-04
   0.385E+01 -.222E+01 0.281E+01   -.379E+01 0.218E+01 -.285E+01   0.202E-01 -.113E-01 0.129E-01   -.522E-04 -.192E-03 0.746E-04
   0.860E+00 -.655E+01 0.327E+01   -.113E+01 0.649E+01 -.324E+01   0.386E-01 0.629E-01 -.131E-01   -.923E-04 0.295E-03 -.162E-03
   -.886E+00 -.672E+01 0.327E+01   0.116E+01 0.671E+01 -.324E+01   -.390E-01 0.569E-01 -.128E-01   0.766E-04 -.218E-03 -.105E-03
   -.507E+00 0.285E+00 0.290E+01   0.708E+00 -.402E+00 -.287E+01   -.133E+00 0.779E-01 -.509E-01   0.222E-03 -.180E-03 0.728E-05
   0.114E-01 0.444E+01 0.281E+01   -.148E-01 -.437E+01 -.285E+01   0.648E-03 0.227E-01 0.129E-01   -.871E-04 -.274E-03 0.738E-04
   0.547E+00 0.324E+00 0.290E+01   -.755E+00 -.442E+00 -.287E+01   0.134E+00 0.764E-01 -.519E-01   0.118E-04 -.193E-03 0.450E-04
   0.141E-01 -.240E-03 -.723E+03   -.106E-01 -.248E-04 0.846E+03   -.682E-02 -.317E-04 -.638E+02   0.334E-03 0.391E-03 0.173E-02
 -----------------------------------------------------------------------------------------------
   0.379E-02 0.555E-04 0.441E+02   0.569E-13 -.789E-13 -.568E-12   -.402E-02 -.178E-03 -.441E+02   0.423E-03 0.330E-03 -.819E-03
 
 
 POSITION                                       TOTAL-FORCE (eV/Angst)
 -----------------------------------------------------------------------------------
      0.00000      0.00000      8.35995        -0.163669     -0.063488     -0.041914
      2.46000      0.00000      8.35995        -0.066345      0.006505     -0.042909
      4.92000      0.00000      8.35995        -0.157240      0.009764     -0.021902
      7.38000      0.00000      8.35995         0.000758     -0.207763     -0.027509
      9.84000      0.00000      8.35995         0.160722      0.018765     -0.021855
      1.23000      2.13042      8.35995        -0.054421      0.054444     -0.042446
      3.69000      2.13042      8.35995         0.431467      0.254250     -0.003407
      6.15000      2.13042      8.35995         0.097925     -0.204967      0.164855
      8.61000      2.13042      8.35995        -0.091488     -0.205114      0.164999
     11.07000      2.13042      8.35995        -0.426606      0.241074     -0.003357
      2.46000      4.26084      8.35995        -0.069620     -0.146341     -0.021918
      4.92000      4.26084      8.35995        -0.130003      0.184603      0.165159
      7.38000      4.26084      8.35995         0.002542      0.000055    -48.157188
      9.84000      4.26084      8.35995         0.130333      0.184370      0.164939
     12.30000      4.26084      8.35995         0.064401     -0.143458     -0.021888
      3.69000      6.39127      8.35995        -0.179632      0.104092     -0.027436
      6.15000      6.39127      8.35995        -0.223486      0.022960      0.165114
      8.61000      6.39127      8.35995         0.226268      0.017615      0.164868
     11.07000      6.39127      8.35995         0.180304      0.103582     -0.027527
     13.53000      6.39127      8.35995         0.001372     -0.012968      0.017386
      4.92000      8.52169      8.35995         0.096731      0.132742     -0.021892
      7.38000      8.52169      8.35995        -0.008970     -0.495160     -0.003415
      9.84000      8.52169      8.35995        -0.087198      0.128240     -0.021871
     12.30000      8.52169      8.35995        -0.007909      0.005230      0.017452
     14.76000      8.52169      8.35995         0.014691      0.007637      0.017363
      1.22476      0.71014      8.35160         0.329194      0.002198      0.117522
      3.69000      0.71014      8.36012         0.071176     -0.219254      0.013494
      6.15000      0.71014      8.36012         0.192692      0.250657      0.257359
      8.61000      0.71014      8.36012        -0.195332      0.249761      0.256969
     11.07000      0.71014      8.36012        -0.123557     -0.215344      0.013660
      2.46000      2.84056      8.36012        -0.136426      0.177564      0.013499
      4.92000      2.84056      8.36012        -0.445815     -0.255671     -0.356054
      7.38000      2.84056      8.36012        -0.003913     -5.076345     -4.348941
      9.84000      2.84056      8.36012         0.437978     -0.254319     -0.355762
     12.30000      2.84056      8.36012         0.143069      0.208126      0.013585
      3.69000      4.97099      8.36012         0.314175      0.042231      0.257219
      6.15000      4.97099      8.36012        -4.395908      2.535754     -4.347602
      8.61000      4.97099      8.36012         4.396475      2.540809     -4.350314
     11.07000      4.97099      8.36012        -0.313292      0.043926      0.257206
     13.53000      4.97099      8.36012        -0.001276      0.082331     -0.022664
      4.92000      7.10141      8.36012         0.119443     -0.294031      0.256940
      7.38000      7.10141      8.36012        -0.002561      0.510192     -0.355893
      9.84000      7.10141      8.36012        -0.119568     -0.292192      0.257396
     12.30000      7.10141      8.36012        -0.082883     -0.046177     -0.026435
     14.76000      7.10141      8.36012         0.081358     -0.048670     -0.026442
      6.15000      9.23183      8.36012        -0.233236      0.005651      0.013590
      8.61000      9.23183      8.36012         0.240258      0.043423      0.013527
     11.07000      9.23183      8.36012         0.067678     -0.039774     -0.022726
     13.53000      9.23183      8.36012        -0.002877      0.094733     -0.026434
     15.99000      9.23183      8.36012        -0.074774     -0.042338     -0.022594
      7.38000      4.26084      9.36012        -0.003009      0.000090     59.986192
 -----------------------------------------------------------------------------------
    total drift:                                0.000191      0.000207      0.002255


--------------------------------------------------------------------------------------------------------



  FREE ENERGIE OF THE ION-ELECTRON SYSTEM (eV)
  ---------------------------------------------------
  free  energy   TOTEN  =      -454.33921903 eV

  energy  without entropy=     -454.33910441  energy(sigma->0) =     -454.33916172
 


--------------------------------------------------------------------------------------------------------


    POTLOK:  cpu time    0.1783: real time    0.1798


--------------------------------------------------------------------------------------------------------


 stress matrix after NEB project (eV)
     15.55883      0.04503     -0.00621
      0.04503     15.55683      0.00001
     -0.00621      0.00001     52.26709
  FORCES: max atom, RMS    59.986192   10.896774
  FORCE total and by dimension   77.818530   59.986192
  Stress total and by dimension   56.709297   52.267086
     LOOP+:  cpu time   46.6213: real time   46.6855
    4ORBIT:  cpu time    0.0000: real time    0.0000

 total amount of memory used by VASP MPI-rank0    90113. kBytes
=======================================================================

   base      :      30000. kBytes
   nonl-proj :       8674. kBytes
   fftplans  :      26248. kBytes
   grid      :      14579. kBytes
   one-center:         21. kBytes
   wavefun   :      10591. kBytes
 
  
  
 General timing and accounting informations for this job:
 ========================================================
  
                  Total CPU time used (sec):       54.265
                            User time (sec):       50.698
                          System time (sec):        3.566
                         Elapsed time (sec):       54.354
  
                   Maximum memory used (kb):      370604.
                   Average memory used (kb):           0.
  
                          Minor page faults:       112855
                          Major page faults:            0
                 Voluntary context switches:         1443
