<?xml version="1.0" encoding="ISO-8859-1"?>
<modeling>
 <generator>
  <i name="program" type="string">vasp </i>
  <i name="version" type="string">5.4.4.18Apr17-6-g9f103f2a35  </i>
  <i name="subversion" type="string">(build Aug 13 2022 23:40:43) complex            parallel </i>
  <i name="platform" type="string">LinuxIFC </i>
  <i name="date" type="string">2024 11 10 </i>
  <i name="time" type="string">04:09:28 </i>
 </generator>
 <incar>
  <i type="int" name="ISTART">     1</i>
  <i type="string" name="PREC">accurate</i>
  <i type="string" name="ALGO"> F          N:DAV,fine,slow</i>
  <i type="logical" name="ADDGRID"> T  </i>
  <i type="int" name="ISPIN">     1</i>
  <i type="int" name="ICHARG">     1</i>
  <i type="int" name="NELM">   300</i>
  <i type="int" name="IBRION">    -1</i>
  <i name="EDIFF">      0.00001000</i>
  <i name="EDIFFG">     -0.00100000</i>
  <i type="int" name="NSW">     1</i>
  <i type="int" name="ISIF">     2</i>
  <i name="ENCUT">    400.00000000</i>
  <i type="logical" name="LREAL"> F  </i>
  <i type="int" name="ISMEAR">     0</i>
  <i name="SIGMA">      0.05000000</i>
  <i type="logical" name="LWAVE"> F  </i>
  <i type="logical" name="LCHARG"> F  </i>
  <v type="int" name="KPOINT_BSE">    -1     0     0     0</v>
  <i type="int" name="NELM">   300</i>
 </incar>
 <structure name="primitive_cell" >
  <crystal>
   <varray name="basis" >
    <v>      12.30000019       0.00000000       0.00000000 </v>
    <v>       6.15000080      10.65211222       0.00000000 </v>
    <v>       0.00000000       0.00000000      20.00000000 </v>
   </varray>
   <i name="volume">   2620.41964732 </i>
   <varray name="rec_basis" >
    <v>       0.08130081      -0.04693905       0.00000000 </v>
    <v>       0.00000000       0.09387809       0.00000000 </v>
    <v>       0.00000000       0.00000000       0.05000000 </v>
   </varray>
  </crystal>
  <varray name="positions" >
   <v>       0.00000000       0.00000000       0.41799748 </v>
   <v>       0.06666667       0.06666660       0.41800609 </v>
   <v>      -0.13333333       0.06666660       0.41800609 </v>
   <v>       0.06666667      -0.13333340       0.41800609 </v>
   <v>      -0.20000000       0.20000000       0.41799748 </v>
   <v>       0.20000000      -0.20000000       0.41799748 </v>
   <v>       0.20000000       0.00000000       0.41799748 </v>
   <v>      -0.20000000       0.00000000       0.41799748 </v>
   <v>       0.00000000       0.20000000       0.41799748 </v>
   <v>       0.00000000      -0.20000000       0.41799748 </v>
   <v>      -0.13333333       0.26666660       0.41800609 </v>
   <v>       0.26666667      -0.13333340       0.41800609 </v>
   <v>      -0.13333333      -0.13333340       0.41800609 </v>
   <v>       0.06666667       0.26666660       0.41800609 </v>
   <v>      -0.33333333       0.26666660       0.41800609 </v>
   <v>      -0.33333333       0.06666660       0.41800609 </v>
   <v>       0.26666667      -0.33333340       0.41800609 </v>
   <v>       0.06666667      -0.33333340       0.41800609 </v>
   <v>       0.26666667       0.06666660       0.41850609 </v>
   <v>      -0.40000000       0.20000000       0.41799748 </v>
   <v>       0.40000000      -0.20000000       0.41799748 </v>
   <v>      -0.20000000       0.40000000       0.41799748 </v>
   <v>       0.20000000      -0.40000000       0.41799748 </v>
   <v>       0.20000000       0.20000000       0.41799748 </v>
   <v>      -0.20000000      -0.20000000       0.41799748 </v>
   <v>      -0.40000000       0.40000000       0.41799748 </v>
   <v>       0.40000000      -0.40000000       0.41799748 </v>
   <v>       0.40000000       0.00000000       0.41799748 </v>
   <v>      -0.40000000       0.00000000       0.41799748 </v>
   <v>       0.00000000       0.40000000       0.41799748 </v>
   <v>       0.00000000      -0.40000000       0.41799748 </v>
   <v>      -0.13333333       0.46666660       0.41800609 </v>
   <v>      -0.33333333       0.46666660       0.41800609 </v>
   <v>       0.46666667      -0.13333340       0.41800609 </v>
   <v>       0.46666667      -0.33333340       0.41800609 </v>
   <v>      -0.33333333      -0.13333340       0.41800609 </v>
   <v>      -0.13333333      -0.33333340       0.41800609 </v>
   <v>       0.26666667       0.26666660       0.41800609 </v>
   <v>       0.46666667       0.26666660       0.41800609 </v>
   <v>       0.26666667       0.46666660       0.41800609 </v>
   <v>       0.06666667       0.46666660       0.41800609 </v>
   <v>       0.46666667       0.46666660       0.41800609 </v>
   <v>       0.46666667       0.06666660       0.41800609 </v>
   <v>       0.40000000       0.40000000       0.41799748 </v>
   <v>      -0.40000000      -0.40000000       0.41799748 </v>
   <v>       0.40000000       0.20000000       0.41799748 </v>
   <v>      -0.40000000      -0.20000000       0.41799748 </v>
   <v>       0.20000000       0.40000000       0.41799748 </v>
   <v>      -0.20000000      -0.40000000       0.41799748 </v>
   <v>       0.40000000       0.40000000       0.46800609 </v>
   <v>      -0.33333333      -0.33333340       0.41800609 </v>
  </varray>
 </structure>
 <varray name="primitive_index" >
  <v type="int" >        1 </v>
  <v type="int" >       26 </v>
  <v type="int" >       30 </v>
  <v type="int" >       46 </v>
  <v type="int" >       10 </v>
  <v type="int" >       22 </v>
  <v type="int" >        2 </v>
  <v type="int" >        5 </v>
  <v type="int" >        6 </v>
  <v type="int" >       21 </v>
  <v type="int" >       35 </v>
  <v type="int" >       47 </v>
  <v type="int" >       50 </v>
  <v type="int" >       31 </v>
  <v type="int" >       34 </v>
  <v type="int" >       29 </v>
  <v type="int" >       42 </v>
  <v type="int" >       41 </v>
  <v type="int" >       27 </v>
  <v type="int" >        9 </v>
  <v type="int" >       23 </v>
  <v type="int" >       15 </v>
  <v type="int" >       17 </v>
  <v type="int" >        7 </v>
  <v type="int" >       25 </v>
  <v type="int" >       14 </v>
  <v type="int" >       18 </v>
  <v type="int" >        3 </v>
  <v type="int" >        4 </v>
  <v type="int" >       11 </v>
  <v type="int" >       16 </v>
  <v type="int" >       40 </v>
  <v type="int" >       39 </v>
  <v type="int" >       48 </v>
  <v type="int" >       43 </v>
  <v type="int" >       49 </v>
  <v type="int" >       45 </v>
  <v type="int" >       32 </v>
  <v type="int" >       33 </v>
  <v type="int" >       37 </v>
  <v type="int" >       36 </v>
  <v type="int" >       38 </v>
  <v type="int" >       28 </v>
  <v type="int" >       13 </v>
  <v type="int" >       19 </v>
  <v type="int" >        8 </v>
  <v type="int" >       24 </v>
  <v type="int" >       12 </v>
  <v type="int" >       20 </v>
  <v type="int" >       51 </v>
  <v type="int" >       44 </v>
 </varray>
 <kpoints>
  <generation param="Gamma">
   <v type="int" name="divisions">       3        3        1 </v>
   <v name="usershift">      0.00000000       0.00000000       0.00000000 </v>
   <v name="genvec1">      0.33333333      -0.00000000       0.00000000 </v>
   <v name="genvec2">      0.00000000       0.33333333       0.00000000 </v>
   <v name="genvec3">      0.00000000       0.00000000       1.00000000 </v>
   <v name="shift">      0.00000000       0.00000000       0.00000000 </v>
  </generation>
  <varray name="kpointlist" >
   <v>       0.00000000       0.00000000       0.00000000 </v>
   <v>       0.33333333       0.00000000       0.00000000 </v>
   <v>       0.00000000       0.33333333       0.00000000 </v>
   <v>       0.33333333       0.33333333       0.00000000 </v>
   <v>      -0.33333333       0.33333333       0.00000000 </v>
  </varray>
  <varray name="weights" >
   <v>       0.11111111 </v>
   <v>       0.22222222 </v>
   <v>       0.22222222 </v>
   <v>       0.22222222 </v>
   <v>       0.22222222 </v>
  </varray>
 </kpoints>
 <parameters>
  <separator name="general" >
   <i type="string" name="SYSTEM"></i>
   <i type="logical" name="LCOMPAT"> F  </i>
  </separator>
  <separator name="electronic" >
   <i type="string" name="PREC">accura</i>
   <i name="ENMAX">    400.00000000</i>
   <i name="ENAUG">    644.87300000</i>
   <i name="EDIFF">      0.00001000</i>
   <i type="int" name="IALGO">    68</i>
   <i type="int" name="IWAVPR">    10</i>
   <i type="int" name="NBANDS">   132</i>
   <i name="NELECT">    206.00000000</i>
   <i type="int" name="TURBO">     0</i>
   <i type="int" name="IRESTART">     0</i>
   <i type="int" name="NREBOOT">     0</i>
   <i type="int" name="NMIN">     0</i>
   <i name="EREF">      0.00000000</i>
   <separator name="electronic smearing" >
    <i type="int" name="ISMEAR">     0</i>
    <i name="SIGMA">      0.05000000</i>
    <i name="KSPACING">      0.50000000</i>
    <i type="logical" name="KGAMMA"> T  </i>
   </separator>
   <separator name="electronic projectors" >
    <i type="logical" name="LREAL"> F  </i>
    <v name="ROPT">      0.00000000      0.00000000</v>
    <i type="int" name="LMAXPAW">  -100</i>
    <i type="int" name="LMAXMIX">     2</i>
    <i type="logical" name="NLSPLINE"> F  </i>
   </separator>
   <separator name="electronic startup" >
    <i type="int" name="ISTART">     1</i>
    <i type="int" name="ICHARG">     1</i>
    <i type="int" name="INIWAV">     1</i>
   </separator>
   <separator name="electronic spin" >
    <i type="int" name="ISPIN">     1</i>
    <i type="logical" name="LNONCOLLINEAR"> F  </i>
    <v name="MAGMOM">      1.00000000      1.00000000      1.00000000      1.00000000      1.00000000      1.00000000      1.00000000      1.00000000      1.00000000      1.00000000      1.00000000      1.00000000      1.00000000      1.00000000      1.00000000      1.00000000      1.00000000      1.00000000      1.00000000      1.00000000
      1.00000000      1.00000000      1.00000000      1.00000000      1.00000000      1.00000000      1.00000000      1.00000000      1.00000000      1.00000000      1.00000000      1.00000000      1.00000000      1.00000000      1.00000000      1.00000000      1.00000000      1.00000000      1.00000000      1.00000000
      1.00000000      1.00000000      1.00000000      1.00000000      1.00000000      1.00000000      1.00000000      1.00000000      1.00000000      1.00000000      1.00000000</v>
    <i name="NUPDOWN">     -1.00000000</i>
    <i type="logical" name="LSORBIT"> F  </i>
    <v name="SAXIS">      0.00000000      0.00000000      1.00000000</v>
    <i type="logical" name="LSPIRAL"> F  </i>
    <v name="QSPIRAL">      0.00000000      0.00000000      0.00000000</v>
    <i type="logical" name="LZEROZ"> F  </i>
   </separator>
   <separator name="electronic exchange-correlation" >
    <i type="logical" name="LASPH"> F  </i>
    <i type="logical" name="LMETAGGA"> F  </i>
   </separator>
   <separator name="electronic convergence" >
    <i type="int" name="NELM">   300</i>
    <i type="int" name="NELMDL">     0</i>
    <i type="int" name="NELMIN">     2</i>
    <i name="ENINI">    400.00000000</i>
    <separator name="electronic convergence detail" >
     <i type="logical" name="LDIAG"> T  </i>
     <i type="logical" name="LSUBROT"> F  </i>
     <i name="WEIMIN">      0.00000000</i>
     <i name="EBREAK">      0.00000002</i>
     <i name="DEPER">      0.30000000</i>
     <i type="int" name="NRMM">     4</i>
     <i name="TIME">      0.40000000</i>
    </separator>
   </separator>
   <separator name="electronic mixer" >
    <i name="AMIX">      0.40000000</i>
    <i name="BMIX">      1.00000000</i>
    <i name="AMIN">      0.10000000</i>
    <i name="AMIX_MAG">      1.60000000</i>
    <i name="BMIX_MAG">      1.00000000</i>
    <separator name="electronic mixer details" >
     <i type="int" name="IMIX">     4</i>
     <i type="logical" name="MIXFIRST"> F  </i>
     <i type="int" name="MAXMIX">   -45</i>
     <i name="WC">    100.00000000</i>
     <i type="int" name="INIMIX">     1</i>
     <i type="int" name="MIXPRE">     1</i>
     <i type="int" name="MREMOVE">     5</i>
    </separator>
   </separator>
   <separator name="electronic dipolcorrection" >
    <i type="logical" name="LDIPOL"> F  </i>
    <i type="logical" name="LMONO"> F  </i>
    <i type="int" name="IDIPOL">     0</i>
    <i name="EPSILON">      1.00000000</i>
    <v name="DIPOL">   -100.00000000   -100.00000000   -100.00000000</v>
    <i name="EFIELD">      0.00000000</i>
   </separator>
  </separator>
  <separator name="grids" >
   <i type="int" name="NGX">    80</i>
   <i type="int" name="NGY">    80</i>
   <i type="int" name="NGZ">   140</i>
   <i type="int" name="NGXF">   160</i>
   <i type="int" name="NGYF">   160</i>
   <i type="int" name="NGZF">   280</i>
   <i type="logical" name="ADDGRID"> T  </i>
  </separator>
  <separator name="ionic" >
   <i type="int" name="NSW">     1</i>
   <i type="int" name="IBRION">    -1</i>
   <i type="int" name="MDALGO">     0</i>
   <i type="int" name="ISIF">     2</i>
   <i name="PSTRESS">      0.00000000</i>
   <i name="EDIFFG">     -0.00100000</i>
   <i type="int" name="NFREE">     0</i>
   <i name="POTIM">      0.50000000</i>
   <i name="SMASS">     -3.00000000</i>
   <i name="SCALEE">      1.00000000</i>
  </separator>
  <separator name="ionic md" >
   <i name="TEBEG">      0.00010000</i>
   <i name="TEEND">      0.00010000</i>
   <i type="int" name="NBLOCK">     1</i>
   <i type="int" name="KBLOCK">     1</i>
   <i type="int" name="NPACO">   256</i>
   <i name="APACO">     16.00000000</i>
  </separator>
  <separator name="symmetry" >
   <i type="int" name="ISYM">     2</i>
   <i name="SYMPREC">      0.00001000</i>
  </separator>
  <separator name="dos" >
   <i type="int" name="LORBIT">     0</i>
   <v name="RWIGS">     -1.00000000     -1.00000000</v>
   <i type="int" name="NEDOS">   301</i>
   <i name="EMIN">     10.00000000</i>
   <i name="EMAX">    -10.00000000</i>
   <i name="EFERMI">      0.00000000</i>
  </separator>
  <separator name="writing" >
   <i type="int" name="NWRITE">     2</i>
   <i type="logical" name="LWAVE"> F  </i>
   <i type="logical" name="LDOWNSAMPLE"> F  </i>
   <i type="logical" name="LCHARG"> F  </i>
   <i type="logical" name="LPARD"> F  </i>
   <i type="logical" name="LVTOT"> F  </i>
   <i type="logical" name="LVHAR"> F  </i>
   <i type="logical" name="LELF"> F  </i>
   <i type="logical" name="LOPTICS"> F  </i>
   <v name="STM">      0.00000000      0.00000000      0.00000000      0.00000000      0.00000000      0.00000000      0.00000000</v>
  </separator>
  <separator name="performance" >
   <i type="int" name="NPAR">     6</i>
   <i type="int" name="NSIM">     4</i>
   <i type="int" name="NBLK">    -1</i>
   <i type="logical" name="LPLANE"> T  </i>
   <i type="logical" name="LSCALAPACK"> T  </i>
   <i type="logical" name="LSCAAWARE"> F  </i>
   <i type="logical" name="LSCALU"> F  </i>
   <i type="logical" name="LASYNC"> F  </i>
   <i type="logical" name="LORBITALREAL"> F  </i>
  </separator>
  <separator name="miscellaneous" >
   <i type="int" name="IDIOT">     3</i>
   <i type="int" name="ISPECIAL">     0</i>
   <i type="logical" name="LMUSIC"> F  </i>
   <v name="POMASS">     12.01100000     16.00000000</v>
   <v name="DARWINR">      0.00000000      0.00000000</v>
   <v name="DARWINV">      1.00000000      1.00000000</v>
   <i type="logical" name="LCORR"> T  </i>
  </separator>
  <i type="logical" name="GGA_COMPAT"> T  </i>
  <i type="logical" name="LBERRY"> F  </i>
  <i type="int" name="ICORELEVEL">     0</i>
  <i type="logical" name="LDAU"> F  </i>
  <i type="int" name="I_CONSTRAINED_M">     0</i>
  <separator name="electronic exchange-correlation" >
   <i type="string" name="GGA">--</i>
   <i type="int" name="VOSKOWN">     0</i>
   <i type="logical" name="LHFCALC"> F  </i>
   <i type="string" name="PRECFOCK"></i>
   <i type="logical" name="LSYMGRAD"> F  </i>
   <i type="logical" name="LHFONE"> F  </i>
   <i type="logical" name="LRHFCALC"> F  </i>
   <i type="logical" name="LTHOMAS"> F  </i>
   <i type="logical" name="LMODELHF"> F  </i>
   <i name="ENCUT4O">     -1.00000000</i>
   <i type="int" name="EXXOEP">     0</i>
   <i type="int" name="FOURORBIT">     0</i>
   <i name="AEXX">      0.00000000</i>
   <i name="HFALPHA">      0.00000000</i>
   <i name="MCALPHA">      0.00000000</i>
   <i name="ALDAX">      1.00000000</i>
   <i name="AGGAX">      1.00000000</i>
   <i name="ALDAC">      1.00000000</i>
   <i name="AGGAC">      1.00000000</i>
   <i type="int" name="NKREDX">     1</i>
   <i type="int" name="NKREDY">     1</i>
   <i type="int" name="NKREDZ">     1</i>
   <i type="logical" name="SHIFTRED"> F  </i>
   <i type="logical" name="ODDONLY"> F  </i>
   <i type="logical" name="EVENONLY"> F  </i>
   <i type="int" name="LMAXFOCK">     0</i>
   <i type="int" name="NMAXFOCKAE">     0</i>
   <i type="logical" name="LFOCKAEDFT"> F  </i>
   <i name="HFSCREEN">      0.00000000</i>
   <i name="HFSCREENC">      0.00000000</i>
   <i type="int" name="NBANDSGWLOW">     0</i>
  </separator>
  <separator name="vdW DFT" >
   <i type="logical" name="LUSE_VDW"> F  </i>
   <i name="Zab_VDW">     -0.84910000</i>
   <i name="PARAM1">      0.12340000</i>
   <i name="PARAM2">      1.00000000</i>
   <i name="PARAM3">      0.00000000</i>
  </separator>
  <separator name="model GW" >
   <i type="int" name="MODEL_GW">     0</i>
   <i name="MODEL_EPS0">     30.82846644</i>
   <i name="MODEL_ALPHA">      1.00000000</i>
  </separator>
  <separator name="linear response parameters" >
   <i type="logical" name="LEPSILON"> F  </i>
   <i type="logical" name="LRPA"> F  </i>
   <i type="logical" name="LNABLA"> F  </i>
   <i type="logical" name="LVEL"> F  </i>
   <i type="int" name="KINTER">     0</i>
   <i name="CSHIFT">      0.10000000</i>
   <i name="OMEGAMAX">     -1.00000000</i>
   <i name="DEG_THRESHOLD">      0.00200000</i>
   <i name="RTIME">     -0.10000000</i>
   <i name="WPLASMAI">      0.00000000</i>
   <v name="DFIELD">      0.00000000      0.00000000      0.00000000</v>
   <v name="WPLASMA">      0.00000000      0.00000000      0.00000000      0.00000000      0.00000000      0.00000000      0.00000000      0.00000000      0.00000000</v>
  </separator>
  <separator name="orbital magnetization" >
   <i type="logical" name="NUCIND"> F  </i>
   <v name="MAGPOS">      0.00000000      0.00000000      0.00000000</v>
   <i type="logical" name="LNICSALL"> T  </i>
   <i type="logical" name="ORBITALMAG"> F  </i>
   <i type="logical" name="LMAGBLOCH"> F  </i>
   <i type="logical" name="LCHIMAG"> F  </i>
   <i type="logical" name="LGAUGE"> T  </i>
   <i type="int" name="MAGATOM">     0</i>
   <v name="MAGDIPOL">      0.00000000      0.00000000      0.00000000</v>
   <v name="AVECCONST">      0.00000000      0.00000000      0.00000000</v>
  </separator>
  <separator name="response functions" >
   <i type="logical" name="LADDER"> F  </i>
   <i type="logical" name="LRPAFORCE"> F  </i>
   <i type="logical" name="LFXC"> F  </i>
   <i type="logical" name="LHARTREE"> T  </i>
   <i type="int" name="IBSE">     0</i>
   <v type="int" name="KPOINT">    -1     0     0     0</v>
   <i type="logical" name="LTCTE"> F  </i>
   <i type="logical" name="LTETE"> F  </i>
   <i type="logical" name="LTRIPLET"> F  </i>
   <i type="logical" name="LFXCEPS"> F  </i>
   <i type="logical" name="LFXHEG"> F  </i>
   <i type="int" name="NATURALO">     2</i>
   <i type="logical" name="L2ORDER"> F  </i>
   <i type="logical" name="LMP2LT"> F  </i>
   <i type="logical" name="LUSEW"> F  </i>
   <i name="ENCUTGW">     -2.00000000</i>
   <i name="ENCUTGWSOFT">     -2.00000000</i>
   <i name="ENCUTLF">     -1.00000000</i>
   <i type="int" name="LMAXMP2">    -1</i>
   <i name="SCISSOR">      0.00000000</i>
   <i type="int" name="NOMEGA">     0</i>
   <i type="int" name="NOMEGAR">     0</i>
   <i type="int" name="NBANDSGW">    -1</i>
   <i type="int" name="NBANDSO">    -1</i>
   <i type="int" name="NBANDSV">    -1</i>
   <i type="int" name="NELM">   300</i>
   <i type="int" name="NELMHF">     1</i>
   <i type="int" name="DIM">     3</i>
   <i type="int" name="ANTIRES">     0</i>
   <i name="OMEGAMAX">    -30.00000000</i>
   <i name="OMEGAMIN">    -30.00000000</i>
   <i name="OMEGATL">   -200.00000000</i>
   <i type="int" name="OMEGAGRID">   140</i>
   <i name="CSHIFT">     -0.10000000</i>
   <i type="logical" name="SELFENERGY"> F  </i>
   <i type="logical" name="LSPECTRAL"> F  </i>
   <i type="logical" name="LSPECTRALGW"> F  </i>
   <i type="logical" name="LSINGLES"> F  </i>
   <i type="logical" name="LFERMIGW"> F  </i>
   <i type="logical" name="ODDONLYGW"> F  </i>
   <i type="logical" name="EVENONLYGW"> F  </i>
   <i type="int" name="NKREDLFX">     1</i>
   <i type="int" name="NKREDLFY">     1</i>
   <i type="int" name="NKREDLFZ">     1</i>
   <i type="int" name="MAXMEM">  2800</i>
   <i type="int" name="TELESCOPE">     0</i>
   <i type="int" name="TAUPAR">     1</i>
   <i type="int" name="OMEGAPAR">    -1</i>
   <i name="LAMBDA">      1.00000000</i>
  </separator>
  <separator name="External order field" >
   <i name="OFIELD_KAPPA">      0.00000000</i>
   <v name="OFIELD_K">      0.00000000      0.00000000      0.00000000</v>
   <i name="OFIELD_Q6_NEAR">      0.00000000</i>
   <i name="OFIELD_Q6_FAR">      0.00000000</i>
   <i name="OFIELD_A">      0.00000000</i>
  </separator>
 </parameters>
 <atominfo>
  <atoms>      51 </atoms>
  <types>       2 </types>
  <array name="atoms" >
   <dimension dim="1">ion</dimension>
   <field type="string">element</field>
   <field type="int">atomtype</field>
   <set>
    <rc><c>C </c><c>   1</c></rc>
    <rc><c>C </c><c>   1</c></rc>
    <rc><c>C </c><c>   1</c></rc>
    <rc><c>C </c><c>   1</c></rc>
    <rc><c>C </c><c>   1</c></rc>
    <rc><c>C </c><c>   1</c></rc>
    <rc><c>C </c><c>   1</c></rc>
    <rc><c>C </c><c>   1</c></rc>
    <rc><c>C </c><c>   1</c></rc>
    <rc><c>C </c><c>   1</c></rc>
    <rc><c>C </c><c>   1</c></rc>
    <rc><c>C </c><c>   1</c></rc>
    <rc><c>C </c><c>   1</c></rc>
    <rc><c>C </c><c>   1</c></rc>
    <rc><c>C </c><c>   1</c></rc>
    <rc><c>C </c><c>   1</c></rc>
    <rc><c>C </c><c>   1</c></rc>
    <rc><c>C </c><c>   1</c></rc>
    <rc><c>C </c><c>   1</c></rc>
    <rc><c>C </c><c>   1</c></rc>
    <rc><c>C </c><c>   1</c></rc>
    <rc><c>C </c><c>   1</c></rc>
    <rc><c>C </c><c>   1</c></rc>
    <rc><c>C </c><c>   1</c></rc>
    <rc><c>C </c><c>   1</c></rc>
    <rc><c>C </c><c>   1</c></rc>
    <rc><c>C </c><c>   1</c></rc>
    <rc><c>C </c><c>   1</c></rc>
    <rc><c>C </c><c>   1</c></rc>
    <rc><c>C </c><c>   1</c></rc>
    <rc><c>C </c><c>   1</c></rc>
    <rc><c>C </c><c>   1</c></rc>
    <rc><c>C </c><c>   1</c></rc>
    <rc><c>C </c><c>   1</c></rc>
    <rc><c>C </c><c>   1</c></rc>
    <rc><c>C </c><c>   1</c></rc>
    <rc><c>C </c><c>   1</c></rc>
    <rc><c>C </c><c>   1</c></rc>
    <rc><c>C </c><c>   1</c></rc>
    <rc><c>C </c><c>   1</c></rc>
    <rc><c>C </c><c>   1</c></rc>
    <rc><c>C </c><c>   1</c></rc>
    <rc><c>C </c><c>   1</c></rc>
    <rc><c>C </c><c>   1</c></rc>
    <rc><c>C </c><c>   1</c></rc>
    <rc><c>C </c><c>   1</c></rc>
    <rc><c>C </c><c>   1</c></rc>
    <rc><c>C </c><c>   1</c></rc>
    <rc><c>C </c><c>   1</c></rc>
    <rc><c>C </c><c>   1</c></rc>
    <rc><c>O </c><c>   2</c></rc>
   </set>
  </array>
  <array name="atomtypes" >
   <dimension dim="1">type</dimension>
   <field type="int">atomspertype</field>
   <field type="string">element</field>
   <field>mass</field>
   <field>valence</field>
   <field type="string">pseudopotential</field>
   <set>
    <rc><c>  50</c><c>C </c><c>     12.01100000</c><c>      4.00000000</c><c>  PAW_PBE C 08Apr2002                   </c></rc>
    <rc><c>   1</c><c>O </c><c>     16.00000000</c><c>      6.00000000</c><c>  PAW_PBE O 08Apr2002                   </c></rc>
   </set>
  </array>
 </atominfo>
 <structure name="initialpos" >
  <crystal>
   <varray name="basis" >
    <v>      12.30000019       0.00000000       0.00000000 </v>
    <v>       6.15000080      10.65211222       0.00000000 </v>
    <v>       0.00000000       0.00000000      20.00000000 </v>
   </varray>
   <i name="volume">   2620.41964732 </i>
   <varray name="rec_basis" >
    <v>       0.08130081      -0.04693905       0.00000000 </v>
    <v>       0.00000000       0.09387809       0.00000000 </v>
    <v>       0.00000000       0.00000000       0.05000000 </v>
   </varray>
  </crystal>
  <varray name="positions" >
   <v>       0.00000000       0.00000000       0.41799748 </v>
   <v>       0.20000000       0.00000000       0.41799748 </v>
   <v>       0.40000000       0.00000000       0.41799748 </v>
   <v>       0.60000000       0.00000000       0.41799748 </v>
   <v>       0.80000000       0.00000000       0.41799748 </v>
   <v>       0.00000000       0.20000000       0.41799748 </v>
   <v>       0.20000000       0.20000000       0.41799748 </v>
   <v>       0.40000000       0.20000000       0.41799748 </v>
   <v>       0.60000000       0.20000000       0.41799748 </v>
   <v>       0.80000000       0.20000000       0.41799748 </v>
   <v>       0.00000000       0.40000000       0.41799748 </v>
   <v>       0.20000000       0.40000000       0.41799748 </v>
   <v>       0.40000000       0.40000000       0.41799748 </v>
   <v>       0.60000000       0.40000000       0.41799748 </v>
   <v>       0.80000000       0.40000000       0.41799748 </v>
   <v>       0.00000000       0.60000000       0.41799748 </v>
   <v>       0.20000000       0.60000000       0.41799748 </v>
   <v>       0.40000000       0.60000000       0.41799748 </v>
   <v>       0.60000000       0.60000000       0.41799748 </v>
   <v>       0.80000000       0.60000000       0.41799748 </v>
   <v>       0.00000000       0.80000000       0.41799748 </v>
   <v>       0.20000000       0.80000000       0.41799748 </v>
   <v>       0.40000000       0.80000000       0.41799748 </v>
   <v>       0.60000000       0.80000000       0.41799748 </v>
   <v>       0.80000000       0.80000000       0.41799748 </v>
   <v>       0.06666667       0.06666660       0.41800609 </v>
   <v>       0.26666667       0.06666660       0.41850609 </v>
   <v>       0.46666667       0.06666660       0.41800609 </v>
   <v>       0.66666667       0.06666660       0.41800609 </v>
   <v>       0.86666667       0.06666660       0.41800609 </v>
   <v>       0.06666667       0.26666660       0.41800609 </v>
   <v>       0.26666667       0.26666660       0.41800609 </v>
   <v>       0.46666667       0.26666660       0.41800609 </v>
   <v>       0.66666667       0.26666660       0.41800609 </v>
   <v>       0.86666667       0.26666660       0.41800609 </v>
   <v>       0.06666667       0.46666660       0.41800609 </v>
   <v>       0.26666667       0.46666660       0.41800609 </v>
   <v>       0.46666667       0.46666660       0.41800609 </v>
   <v>       0.66666667       0.46666660       0.41800609 </v>
   <v>       0.86666667       0.46666660       0.41800609 </v>
   <v>       0.06666667       0.66666660       0.41800609 </v>
   <v>       0.26666667       0.66666660       0.41800609 </v>
   <v>       0.46666667       0.66666660       0.41800609 </v>
   <v>       0.66666667       0.66666660       0.41800609 </v>
   <v>       0.86666667       0.66666660       0.41800609 </v>
   <v>       0.06666667       0.86666660       0.41800609 </v>
   <v>       0.26666667       0.86666660       0.41800609 </v>
   <v>       0.46666667       0.86666660       0.41800609 </v>
   <v>       0.66666667       0.86666660       0.41800609 </v>
   <v>       0.86666667       0.86666660       0.41800609 </v>
   <v>       0.40000000       0.40000000       0.46800609 </v>
  </varray>
  <varray name="velocities" >
   <v>       0.00000000       0.00000000       0.00000000 </v>
   <v>       0.00000000       0.00000000       0.00000000 </v>
   <v>       0.00000000       0.00000000       0.00000000 </v>
   <v>       0.00000000       0.00000000       0.00000000 </v>
   <v>       0.00000000       0.00000000       0.00000000 </v>
   <v>       0.00000000       0.00000000       0.00000000 </v>
   <v>       0.00000000       0.00000000       0.00000000 </v>
   <v>       0.00000000       0.00000000       0.00000000 </v>
   <v>       0.00000000       0.00000000       0.00000000 </v>
   <v>       0.00000000       0.00000000       0.00000000 </v>
   <v>       0.00000000       0.00000000       0.00000000 </v>
   <v>       0.00000000       0.00000000       0.00000000 </v>
   <v>       0.00000000       0.00000000       0.00000000 </v>
   <v>       0.00000000       0.00000000       0.00000000 </v>
   <v>       0.00000000       0.00000000       0.00000000 </v>
   <v>       0.00000000       0.00000000       0.00000000 </v>
   <v>       0.00000000       0.00000000       0.00000000 </v>
   <v>       0.00000000       0.00000000       0.00000000 </v>
   <v>       0.00000000       0.00000000       0.00000000 </v>
   <v>       0.00000000       0.00000000       0.00000000 </v>
   <v>       0.00000000       0.00000000       0.00000000 </v>
   <v>       0.00000000       0.00000000       0.00000000 </v>
   <v>       0.00000000       0.00000000       0.00000000 </v>
   <v>       0.00000000       0.00000000       0.00000000 </v>
   <v>       0.00000000       0.00000000       0.00000000 </v>
   <v>       0.00000000       0.00000000       0.00000000 </v>
   <v>       0.00000000       0.00000000       0.00000000 </v>
   <v>       0.00000000       0.00000000       0.00000000 </v>
   <v>       0.00000000       0.00000000       0.00000000 </v>
   <v>       0.00000000       0.00000000       0.00000000 </v>
   <v>       0.00000000       0.00000000       0.00000000 </v>
   <v>       0.00000000       0.00000000       0.00000000 </v>
   <v>       0.00000000       0.00000000       0.00000000 </v>
   <v>       0.00000000       0.00000000       0.00000000 </v>
   <v>       0.00000000       0.00000000       0.00000000 </v>
   <v>       0.00000000       0.00000000       0.00000000 </v>
   <v>       0.00000000       0.00000000       0.00000000 </v>
   <v>       0.00000000       0.00000000       0.00000000 </v>
   <v>       0.00000000       0.00000000       0.00000000 </v>
   <v>       0.00000000       0.00000000       0.00000000 </v>
   <v>       0.00000000       0.00000000       0.00000000 </v>
   <v>       0.00000000       0.00000000       0.00000000 </v>
   <v>       0.00000000       0.00000000       0.00000000 </v>
   <v>       0.00000000       0.00000000       0.00000000 </v>
   <v>       0.00000000       0.00000000       0.00000000 </v>
   <v>       0.00000000       0.00000000       0.00000000 </v>
   <v>       0.00000000       0.00000000       0.00000000 </v>
   <v>       0.00000000       0.00000000       0.00000000 </v>
   <v>       0.00000000       0.00000000       0.00000000 </v>
   <v>       0.00000000       0.00000000       0.00000000 </v>
   <v>       0.00000000       0.00000000       0.00000000 </v>
  </varray>
 </structure>
 <calculation>
  <scstep>
   <time name="dav">    4.10    4.11</time>
   <time name="total">    4.69    4.70</time>
   <energy>
    <i name="alphaZ">     82.54348252 </i>
    <i name="ewald">  34516.54787268 </i>
    <i name="hartreedc"> -41034.86318094 </i>
    <i name="XCdc">    721.37964128 </i>
    <i name="pawpsdc">  22781.19595426 </i>
    <i name="pawaedc"> -22817.52509957 </i>
    <i name="eentropy">     -0.00050815 </i>
    <i name="bandstr">  -2491.19827092 </i>
    <i name="atom">   7788.62438962 </i>
    <i name="e_fr_energy">   -453.29571921 </i>
    <i name="e_wo_entrp">   -453.29521106 </i>
    <i name="e_0_energy">   -453.29546513 </i>
   </energy>
  </scstep>
  <scstep>
   <time name="diag">    0.89    0.89</time>
   <time name="diis">    3.75    3.76</time>
   <time name="orth">    0.04    0.04</time>
   <time name="total">    5.26    5.27</time>
   <energy>
    <i name="e_fr_energy">   -454.28354772 </i>
    <i name="e_wo_entrp">   -454.28345185 </i>
    <i name="e_0_energy">   -454.28349979 </i>
   </energy>
  </scstep>
  <scstep>
   <time name="diag">    0.89    0.89</time>
   <time name="diis">    4.15    4.15</time>
   <time name="orth">    0.04    0.04</time>
   <time name="total">    5.66    5.66</time>
   <energy>
    <i name="e_fr_energy">   -454.33588291 </i>
    <i name="e_wo_entrp">   -454.33575810 </i>
    <i name="e_0_energy">   -454.33582050 </i>
   </energy>
  </scstep>
  <scstep>
   <time name="diag">    0.88    0.88</time>
   <time name="diis">    4.09    4.09</time>
   <time name="orth">    0.04    0.04</time>
   <time name="total">    5.59    5.59</time>
   <energy>
    <i name="e_fr_energy">   -454.33976738 </i>
    <i name="e_wo_entrp">   -454.33965810 </i>
    <i name="e_0_energy">   -454.33971274 </i>
   </energy>
  </scstep>
  <scstep>
   <time name="diag">    0.88    0.88</time>
   <time name="diis">    4.05    4.06</time>
   <time name="orth">    0.05    0.05</time>
   <time name="total">    5.57    5.57</time>
   <energy>
    <i name="e_fr_energy">   -454.33991644 </i>
    <i name="e_wo_entrp">   -454.33980491 </i>
    <i name="e_0_energy">   -454.33986068 </i>
   </energy>
  </scstep>
  <scstep>
   <time name="diag">    0.89    0.89</time>
   <time name="diis">    3.98    3.98</time>
   <time name="orth">    0.04    0.04</time>
   <time name="total">    5.49    5.49</time>
   <energy>
    <i name="e_fr_energy">   -454.33992156 </i>
    <i name="e_wo_entrp">   -454.33980825 </i>
    <i name="e_0_energy">   -454.33986491 </i>
   </energy>
  </scstep>
  <scstep>
   <time name="diag">    0.90    0.90</time>
   <time name="diis">    3.21    3.21</time>
   <time name="orth">    0.04    0.04</time>
   <time name="total">    4.73    4.73</time>
   <energy>
    <i name="e_fr_energy">   -454.33993926 </i>
    <i name="e_wo_entrp">   -454.33982477 </i>
    <i name="e_0_energy">   -454.33988202 </i>
   </energy>
  </scstep>
  <scstep>
   <time name="diag">    0.90    0.90</time>
   <time name="diis">    2.67    2.67</time>
   <time name="orth">    0.04    0.04</time>
   <time name="total">    3.79    3.79</time>
   <energy>
    <i name="alphaZ">     82.54348252 </i>
    <i name="ewald">  34516.54787268 </i>
    <i name="hartreedc"> -41034.83558689 </i>
    <i name="XCdc">    721.38019809 </i>
    <i name="pawpsdc">  22780.34096867 </i>
    <i name="pawaedc"> -22816.67051089 </i>
    <i name="eentropy">     -0.00011415 </i>
    <i name="bandstr">  -2492.27064150 </i>
    <i name="atom">   7788.62438962 </i>
    <i name="e_fr_energy">   -454.33994186 </i>
    <i name="e_wo_entrp">   -454.33982771 </i>
    <i name="e_0_energy">   -454.33988478 </i>
   </energy>
  </scstep>
  <structure>
   <crystal>
    <varray name="basis" >
     <v>      12.30000019       0.00000000       0.00000000 </v>
     <v>       6.15000080      10.65211222       0.00000000 </v>
     <v>       0.00000000       0.00000000      20.00000000 </v>
    </varray>
    <i name="volume">   2620.41964732 </i>
    <varray name="rec_basis" >
     <v>       0.08130081      -0.04693905       0.00000000 </v>
     <v>       0.00000000       0.09387809       0.00000000 </v>
     <v>       0.00000000       0.00000000       0.05000000 </v>
    </varray>
   </crystal>
   <varray name="positions" >
    <v>       0.00000000       0.00000000       0.41799748 </v>
    <v>       0.20000000       0.00000000       0.41799748 </v>
    <v>       0.40000000       0.00000000       0.41799748 </v>
    <v>       0.60000000       0.00000000       0.41799748 </v>
    <v>       0.80000000       0.00000000       0.41799748 </v>
    <v>       0.00000000       0.20000000       0.41799748 </v>
    <v>       0.20000000       0.20000000       0.41799748 </v>
    <v>       0.40000000       0.20000000       0.41799748 </v>
    <v>       0.60000000       0.20000000       0.41799748 </v>
    <v>       0.80000000       0.20000000       0.41799748 </v>
    <v>       0.00000000       0.40000000       0.41799748 </v>
    <v>       0.20000000       0.40000000       0.41799748 </v>
    <v>       0.40000000       0.40000000       0.41799748 </v>
    <v>       0.60000000       0.40000000       0.41799748 </v>
    <v>       0.80000000       0.40000000       0.41799748 </v>
    <v>       0.00000000       0.60000000       0.41799748 </v>
    <v>       0.20000000       0.60000000       0.41799748 </v>
    <v>       0.40000000       0.60000000       0.41799748 </v>
    <v>       0.60000000       0.60000000       0.41799748 </v>
    <v>       0.80000000       0.60000000       0.41799748 </v>
    <v>       0.00000000       0.80000000       0.41799748 </v>
    <v>       0.20000000       0.80000000       0.41799748 </v>
    <v>       0.40000000       0.80000000       0.41799748 </v>
    <v>       0.60000000       0.80000000       0.41799748 </v>
    <v>       0.80000000       0.80000000       0.41799748 </v>
    <v>       0.06666667       0.06666660       0.41800609 </v>
    <v>       0.26666667       0.06666660       0.41850609 </v>
    <v>       0.46666667       0.06666660       0.41800609 </v>
    <v>       0.66666667       0.06666660       0.41800609 </v>
    <v>       0.86666667       0.06666660       0.41800609 </v>
    <v>       0.06666667       0.26666660       0.41800609 </v>
    <v>       0.26666667       0.26666660       0.41800609 </v>
    <v>       0.46666667       0.26666660       0.41800609 </v>
    <v>       0.66666667       0.26666660       0.41800609 </v>
    <v>       0.86666667       0.26666660       0.41800609 </v>
    <v>       0.06666667       0.46666660       0.41800609 </v>
    <v>       0.26666667       0.46666660       0.41800609 </v>
    <v>       0.46666667       0.46666660       0.41800609 </v>
    <v>       0.66666667       0.46666660       0.41800609 </v>
    <v>       0.86666667       0.46666660       0.41800609 </v>
    <v>       0.06666667       0.66666660       0.41800609 </v>
    <v>       0.26666667       0.66666660       0.41800609 </v>
    <v>       0.46666667       0.66666660       0.41800609 </v>
    <v>       0.66666667       0.66666660       0.41800609 </v>
    <v>       0.86666667       0.66666660       0.41800609 </v>
    <v>       0.06666667       0.86666660       0.41800609 </v>
    <v>       0.26666667       0.86666660       0.41800609 </v>
    <v>       0.46666667       0.86666660       0.41800609 </v>
    <v>       0.66666667       0.86666660       0.41800609 </v>
    <v>       0.86666667       0.86666660       0.41800609 </v>
    <v>       0.40000000       0.40000000       0.46800609 </v>
   </varray>
  </structure>
  <varray name="forces" >
   <v>      -0.04759505      -0.02764167       0.00441871 </v>
   <v>       0.04796466      -0.02721235       0.07059322 </v>
   <v>      -0.15940087       0.01453543       0.03580896 </v>
   <v>       0.00024479      -0.20785347      -0.03184828 </v>
   <v>       0.15909686       0.01423438      -0.02542217 </v>
   <v>      -0.00013382       0.05511545       0.01300277 </v>
   <v>       0.42905352       0.24688844       0.06035751 </v>
   <v>       0.09499079      -0.20526190       0.16884531 </v>
   <v>      -0.09454186      -0.20508078       0.16459434 </v>
   <v>      -0.42901371       0.24765671      -0.00003580 </v>
   <v>      -0.06703225      -0.14492169      -0.03068157 </v>
   <v>      -0.12993689       0.18432405       0.15927086 </v>
   <v>       0.00025649      -0.00025010     -48.15747885 </v>
   <v>       0.13016990       0.18469581       0.16503980 </v>
   <v>       0.06701643      -0.14504895      -0.02620035 </v>
   <v>      -0.17995219       0.10371706      -0.02655476 </v>
   <v>      -0.22481028       0.02062978       0.16587214 </v>
   <v>       0.22488832       0.02001756       0.16487597 </v>
   <v>       0.17992510       0.10375140      -0.02716189 </v>
   <v>      -0.00015161      -0.01297252       0.01838033 </v>
   <v>       0.09200403       0.13064774      -0.02565566 </v>
   <v>      -0.00001568      -0.49516341      -0.00501693 </v>
   <v>      -0.09213106       0.13035194      -0.02239749 </v>
   <v>      -0.01150387       0.00638371       0.01300068 </v>
   <v>       0.01123462       0.00644270       0.01826730 </v>
   <v>      -0.00004132      -0.00014753      -0.01017256 </v>
   <v>       0.09731942      -0.21729123      -0.13324018 </v>
   <v>       0.19379236       0.25043820       0.25238512 </v>
   <v>      -0.19412639       0.25010592       0.25701149 </v>
   <v>      -0.09723154      -0.21726235       0.00981247 </v>
   <v>      -0.13975178       0.19289024       0.00535471 </v>
   <v>      -0.44195511      -0.25444033      -0.35988650 </v>
   <v>      -0.00041500      -5.07641899      -4.34848139 </v>
   <v>       0.44188622      -0.25513006      -0.35546495 </v>
   <v>       0.13962029       0.19281220       0.01073344 </v>
   <v>       0.31369933       0.04319904       0.25771693 </v>
   <v>      -4.39622142       2.53785722      -4.34908452 </v>
   <v>       4.39613586       2.53852593      -4.34887026 </v>
   <v>      -0.31388866       0.04311967       0.25693010 </v>
   <v>       0.00000995       0.08229152      -0.02212891 </v>
   <v>       0.11964567      -0.29321426       0.25689768 </v>
   <v>       0.00002279       0.51017368      -0.35544694 </v>
   <v>      -0.11960292      -0.29318622       0.25772068 </v>
   <v>      -0.08210416      -0.04746089      -0.02673988 </v>
   <v>       0.08214768      -0.04735482      -0.02653955 </v>
   <v>      -0.23676518       0.02456118       0.01073450 </v>
   <v>       0.23669623       0.02442377       0.00519465 </v>
   <v>       0.07134550      -0.04095845      -0.02640304 </v>
   <v>       0.00013288       0.09492364      -0.02582703 </v>
   <v>      -0.07111373      -0.04101106      -0.02216433 </v>
   <v>       0.00013662       0.00056865      59.98608416 </v>
  </varray>
  <varray name="stress" >
   <v>       9.51049226      -0.00055486       0.00045781 </v>
   <v>      -0.00055485       9.51042822      -0.00100587 </v>
   <v>       0.00045782      -0.00100587      31.95180972 </v>
  </varray>
  <energy>
   <i name="e_fr_energy">   -454.33994186 </i>
   <i name="e_wo_entrp">   -454.33988478 </i>
   <i name="e_0_energy">     -0.00011415 </i>
  </energy>
  <time name="totalsc">   46.90   46.96</time>
  <eigenvalues>
   <array>
    <dimension dim="1">band</dimension>
    <dimension dim="2">kpoint</dimension>
    <dimension dim="3">spin</dimension>
    <field>eigene</field>
    <field>occ</field>
    <set>
     <set comment="spin 1">
      <set comment="kpoint 1">
       <r>  -31.7406    1.0000 </r>
       <r>  -22.2712    1.0000 </r>
       <r>  -21.5033    1.0000 </r>
       <r>  -21.5032    1.0000 </r>
       <r>  -21.3946    1.0000 </r>
       <r>  -21.3946    1.0000 </r>
       <r>  -21.3940    1.0000 </r>
       <r>  -20.8744    1.0000 </r>
       <r>  -19.8768    1.0000 </r>
       <r>  -19.8768    1.0000 </r>
       <r>  -19.5494    1.0000 </r>
       <r>  -19.5494    1.0000 </r>
       <r>  -19.5392    1.0000 </r>
       <r>  -19.1915    1.0000 </r>
       <r>  -18.9012    1.0000 </r>
       <r>  -18.9012    1.0000 </r>
       <r>  -18.6438    1.0000 </r>
       <r>  -18.6433    1.0000 </r>
       <r>  -18.6432    1.0000 </r>
       <r>  -17.8844    1.0000 </r>
       <r>  -17.0217    1.0000 </r>
       <r>  -17.0217    1.0000 </r>
       <r>  -16.4780    1.0000 </r>
       <r>  -16.4584    1.0000 </r>
       <r>  -16.4584    1.0000 </r>
       <r>  -16.0498    1.0000 </r>
       <r>  -15.9969    1.0000 </r>
       <r>  -15.9969    1.0000 </r>
       <r>  -15.4977    1.0000 </r>
       <r>  -15.4976    1.0000 </r>
       <r>  -15.4932    1.0000 </r>
       <r>  -15.0898    1.0000 </r>
       <r>  -14.6296    1.0000 </r>
       <r>  -14.6295    1.0000 </r>
       <r>  -14.1500    1.0000 </r>
       <r>  -14.1500    1.0000 </r>
       <r>  -14.1433    1.0000 </r>
       <r>  -13.9649    1.0000 </r>
       <r>  -12.9914    1.0000 </r>
       <r>  -12.9914    1.0000 </r>
       <r>  -12.0315    1.0000 </r>
       <r>  -11.7651    1.0000 </r>
       <r>  -11.7651    1.0000 </r>
       <r>  -11.7619    1.0000 </r>
       <r>  -11.6906    1.0000 </r>
       <r>  -11.6905    1.0000 </r>
       <r>  -11.6518    1.0000 </r>
       <r>  -11.6499    1.0000 </r>
       <r>  -11.6499    1.0000 </r>
       <r>  -11.6490    1.0000 </r>
       <r>  -10.8023    1.0000 </r>
       <r>  -10.8022    1.0000 </r>
       <r>  -10.4289    1.0000 </r>
       <r>  -10.3345    1.0000 </r>
       <r>  -10.2890    1.0000 </r>
       <r>  -10.2890    1.0000 </r>
       <r>  -10.2708    1.0000 </r>
       <r>  -10.0782    1.0000 </r>
       <r>   -9.6854    1.0000 </r>
       <r>   -9.6849    1.0000 </r>
       <r>   -9.3263    1.0000 </r>
       <r>   -9.3255    1.0000 </r>
       <r>   -9.3004    1.0000 </r>
       <r>   -9.2803    1.0000 </r>
       <r>   -9.2799    1.0000 </r>
       <r>   -9.0462    1.0000 </r>
       <r>   -9.0049    1.0000 </r>
       <r>   -9.0049    1.0000 </r>
       <r>   -8.9488    1.0000 </r>
       <r>   -8.9409    1.0000 </r>
       <r>   -8.9407    1.0000 </r>
       <r>   -8.9398    1.0000 </r>
       <r>   -8.9193    1.0000 </r>
       <r>   -8.9192    1.0000 </r>
       <r>   -8.8936    1.0000 </r>
       <r>   -8.4369    1.0000 </r>
       <r>   -7.8016    1.0000 </r>
       <r>   -7.8006    1.0000 </r>
       <r>   -7.3253    1.0000 </r>
       <r>   -7.3248    1.0000 </r>
       <r>   -7.3105    1.0000 </r>
       <r>   -7.3019    1.0000 </r>
       <r>   -7.3000    1.0000 </r>
       <r>   -7.2990    1.0000 </r>
       <r>   -7.1611    1.0000 </r>
       <r>   -7.1609    1.0000 </r>
       <r>   -7.1551    1.0000 </r>
       <r>   -6.7516    1.0000 </r>
       <r>   -6.5084    1.0000 </r>
       <r>   -6.5056    1.0000 </r>
       <r>   -6.2671    1.0000 </r>
       <r>   -6.2466    1.0000 </r>
       <r>   -6.2465    1.0000 </r>
       <r>   -5.9243    1.0000 </r>
       <r>   -5.9221    1.0000 </r>
       <r>   -5.1958    1.0000 </r>
       <r>   -4.7641    1.0000 </r>
       <r>   -4.7636    1.0000 </r>
       <r>   -4.2708    1.0000 </r>
       <r>   -4.2665    1.0000 </r>
       <r>   -4.2665    1.0000 </r>
       <r>   -3.2150    1.0000 </r>
       <r>   -3.2148    1.0000 </r>
       <r>   -2.9164    0.0021 </r>
       <r>   -1.4615    0.0000 </r>
       <r>   -1.4572    0.0000 </r>
       <r>   -1.4572    0.0000 </r>
       <r>   -0.9914    0.0000 </r>
       <r>   -0.9913    0.0000 </r>
       <r>   -0.5431    0.0000 </r>
       <r>    0.4169    0.0000 </r>
       <r>    0.4214    0.0000 </r>
       <r>    0.4216    0.0000 </r>
       <r>    0.5624    0.0000 </r>
       <r>    0.8433    0.0000 </r>
       <r>    0.8436    0.0000 </r>
       <r>    1.2922    0.0000 </r>
       <r>    1.3393    0.0000 </r>
       <r>    1.6728    0.0000 </r>
       <r>    1.8014    0.0000 </r>
       <r>    1.8027    0.0000 </r>
       <r>    1.8030    0.0000 </r>
       <r>    1.8266    0.0000 </r>
       <r>    1.8274    0.0000 </r>
       <r>    2.0315    0.0000 </r>
       <r>    2.1765    0.0000 </r>
       <r>    2.1793    0.0000 </r>
       <r>    2.1793    0.0000 </r>
       <r>    2.3471    0.0000 </r>
       <r>    2.3482    0.0000 </r>
       <r>    2.6300    0.0000 </r>
       <r>    2.6391    0.0000 </r>
      </set>
      <set comment="kpoint 2">
       <r>  -31.7407    1.0000 </r>
       <r>  -22.1892    1.0000 </r>
       <r>  -21.8694    1.0000 </r>
       <r>  -21.6615    1.0000 </r>
       <r>  -21.4548    1.0000 </r>
       <r>  -21.0349    1.0000 </r>
       <r>  -20.8974    1.0000 </r>
       <r>  -20.7276    1.0000 </r>
       <r>  -20.4203    1.0000 </r>
       <r>  -20.1624    1.0000 </r>
       <r>  -19.7872    1.0000 </r>
       <r>  -19.6993    1.0000 </r>
       <r>  -19.3266    1.0000 </r>
       <r>  -19.2431    1.0000 </r>
       <r>  -19.0619    1.0000 </r>
       <r>  -18.5930    1.0000 </r>
       <r>  -18.4581    1.0000 </r>
       <r>  -18.1215    1.0000 </r>
       <r>  -18.0632    1.0000 </r>
       <r>  -17.5911    1.0000 </r>
       <r>  -17.4981    1.0000 </r>
       <r>  -17.3010    1.0000 </r>
       <r>  -17.2768    1.0000 </r>
       <r>  -16.8517    1.0000 </r>
       <r>  -16.6587    1.0000 </r>
       <r>  -16.1764    1.0000 </r>
       <r>  -15.9782    1.0000 </r>
       <r>  -15.8479    1.0000 </r>
       <r>  -15.2985    1.0000 </r>
       <r>  -15.1700    1.0000 </r>
       <r>  -15.1345    1.0000 </r>
       <r>  -14.8851    1.0000 </r>
       <r>  -14.7820    1.0000 </r>
       <r>  -14.4783    1.0000 </r>
       <r>  -14.4563    1.0000 </r>
       <r>  -13.7674    1.0000 </r>
       <r>  -13.7602    1.0000 </r>
       <r>  -13.1963    1.0000 </r>
       <r>  -13.0896    1.0000 </r>
       <r>  -12.9344    1.0000 </r>
       <r>  -12.9046    1.0000 </r>
       <r>  -12.5854    1.0000 </r>
       <r>  -12.5502    1.0000 </r>
       <r>  -12.3903    1.0000 </r>
       <r>  -12.0224    1.0000 </r>
       <r>  -11.6637    1.0000 </r>
       <r>  -11.4476    1.0000 </r>
       <r>  -11.2964    1.0000 </r>
       <r>  -11.1220    1.0000 </r>
       <r>  -10.9145    1.0000 </r>
       <r>  -10.8503    1.0000 </r>
       <r>  -10.5845    1.0000 </r>
       <r>  -10.5329    1.0000 </r>
       <r>  -10.2856    1.0000 </r>
       <r>  -10.2372    1.0000 </r>
       <r>  -10.1613    1.0000 </r>
       <r>  -10.0492    1.0000 </r>
       <r>   -9.8536    1.0000 </r>
       <r>   -9.8205    1.0000 </r>
       <r>   -9.6543    1.0000 </r>
       <r>   -9.6068    1.0000 </r>
       <r>   -9.5605    1.0000 </r>
       <r>   -9.5276    1.0000 </r>
       <r>   -9.3719    1.0000 </r>
       <r>   -9.3404    1.0000 </r>
       <r>   -9.2599    1.0000 </r>
       <r>   -9.1759    1.0000 </r>
       <r>   -9.0998    1.0000 </r>
       <r>   -9.0828    1.0000 </r>
       <r>   -8.8645    1.0000 </r>
       <r>   -8.7140    1.0000 </r>
       <r>   -8.6642    1.0000 </r>
       <r>   -8.5047    1.0000 </r>
       <r>   -8.4024    1.0000 </r>
       <r>   -8.2877    1.0000 </r>
       <r>   -8.1333    1.0000 </r>
       <r>   -8.0947    1.0000 </r>
       <r>   -8.0666    1.0000 </r>
       <r>   -7.9716    1.0000 </r>
       <r>   -7.8088    1.0000 </r>
       <r>   -7.6196    1.0000 </r>
       <r>   -7.3614    1.0000 </r>
       <r>   -7.3366    1.0000 </r>
       <r>   -7.2658    1.0000 </r>
       <r>   -7.1964    1.0000 </r>
       <r>   -6.9203    1.0000 </r>
       <r>   -6.8729    1.0000 </r>
       <r>   -6.6937    1.0000 </r>
       <r>   -6.5917    1.0000 </r>
       <r>   -6.3486    1.0000 </r>
       <r>   -6.1853    1.0000 </r>
       <r>   -6.0740    1.0000 </r>
       <r>   -5.9216    1.0000 </r>
       <r>   -5.7390    1.0000 </r>
       <r>   -5.6409    1.0000 </r>
       <r>   -5.3226    1.0000 </r>
       <r>   -5.1152    1.0000 </r>
       <r>   -4.9701    1.0000 </r>
       <r>   -4.9228    1.0000 </r>
       <r>   -4.2701    1.0000 </r>
       <r>   -4.1691    1.0000 </r>
       <r>   -3.3368    1.0000 </r>
       <r>   -3.1370    0.9996 </r>
       <r>   -2.8041    0.0000 </r>
       <r>   -1.5915    0.0000 </r>
       <r>   -1.4238    0.0000 </r>
       <r>   -0.8402    0.0000 </r>
       <r>   -0.8193    0.0000 </r>
       <r>   -0.7062    0.0000 </r>
       <r>   -0.6681    0.0000 </r>
       <r>   -0.1287    0.0000 </r>
       <r>   -0.0062    0.0000 </r>
       <r>    0.2927    0.0000 </r>
       <r>    0.7048    0.0000 </r>
       <r>    0.7267    0.0000 </r>
       <r>    1.0996    0.0000 </r>
       <r>    1.1754    0.0000 </r>
       <r>    1.3640    0.0000 </r>
       <r>    1.4622    0.0000 </r>
       <r>    1.5378    0.0000 </r>
       <r>    1.5707    0.0000 </r>
       <r>    1.6369    0.0000 </r>
       <r>    1.8224    0.0000 </r>
       <r>    1.9111    0.0000 </r>
       <r>    2.0389    0.0000 </r>
       <r>    2.2211    0.0000 </r>
       <r>    2.2632    0.0000 </r>
       <r>    2.3281    0.0000 </r>
       <r>    2.3391    0.0000 </r>
       <r>    2.3962    0.0000 </r>
       <r>    2.4570    0.0000 </r>
       <r>    2.7969    0.0000 </r>
      </set>
      <set comment="kpoint 3">
       <r>  -31.7407    1.0000 </r>
       <r>  -22.1892    1.0000 </r>
       <r>  -21.8695    1.0000 </r>
       <r>  -21.6615    1.0000 </r>
       <r>  -21.4548    1.0000 </r>
       <r>  -21.0349    1.0000 </r>
       <r>  -20.8974    1.0000 </r>
       <r>  -20.7277    1.0000 </r>
       <r>  -20.4203    1.0000 </r>
       <r>  -20.1625    1.0000 </r>
       <r>  -19.7872    1.0000 </r>
       <r>  -19.6994    1.0000 </r>
       <r>  -19.3265    1.0000 </r>
       <r>  -19.2431    1.0000 </r>
       <r>  -19.0619    1.0000 </r>
       <r>  -18.5930    1.0000 </r>
       <r>  -18.4581    1.0000 </r>
       <r>  -18.1215    1.0000 </r>
       <r>  -18.0632    1.0000 </r>
       <r>  -17.5911    1.0000 </r>
       <r>  -17.4981    1.0000 </r>
       <r>  -17.3010    1.0000 </r>
       <r>  -17.2768    1.0000 </r>
       <r>  -16.8517    1.0000 </r>
       <r>  -16.6587    1.0000 </r>
       <r>  -16.1764    1.0000 </r>
       <r>  -15.9782    1.0000 </r>
       <r>  -15.8479    1.0000 </r>
       <r>  -15.2986    1.0000 </r>
       <r>  -15.1700    1.0000 </r>
       <r>  -15.1345    1.0000 </r>
       <r>  -14.8851    1.0000 </r>
       <r>  -14.7820    1.0000 </r>
       <r>  -14.4783    1.0000 </r>
       <r>  -14.4562    1.0000 </r>
       <r>  -13.7674    1.0000 </r>
       <r>  -13.7602    1.0000 </r>
       <r>  -13.1963    1.0000 </r>
       <r>  -13.0896    1.0000 </r>
       <r>  -12.9344    1.0000 </r>
       <r>  -12.9047    1.0000 </r>
       <r>  -12.5854    1.0000 </r>
       <r>  -12.5502    1.0000 </r>
       <r>  -12.3903    1.0000 </r>
       <r>  -12.0223    1.0000 </r>
       <r>  -11.6636    1.0000 </r>
       <r>  -11.4476    1.0000 </r>
       <r>  -11.2964    1.0000 </r>
       <r>  -11.1220    1.0000 </r>
       <r>  -10.9146    1.0000 </r>
       <r>  -10.8503    1.0000 </r>
       <r>  -10.5845    1.0000 </r>
       <r>  -10.5329    1.0000 </r>
       <r>  -10.2854    1.0000 </r>
       <r>  -10.2374    1.0000 </r>
       <r>  -10.1614    1.0000 </r>
       <r>  -10.0491    1.0000 </r>
       <r>   -9.8535    1.0000 </r>
       <r>   -9.8205    1.0000 </r>
       <r>   -9.6546    1.0000 </r>
       <r>   -9.6081    1.0000 </r>
       <r>   -9.5612    1.0000 </r>
       <r>   -9.5271    1.0000 </r>
       <r>   -9.3710    1.0000 </r>
       <r>   -9.3406    1.0000 </r>
       <r>   -9.2592    1.0000 </r>
       <r>   -9.1759    1.0000 </r>
       <r>   -9.0999    1.0000 </r>
       <r>   -9.0820    1.0000 </r>
       <r>   -8.8645    1.0000 </r>
       <r>   -8.7133    1.0000 </r>
       <r>   -8.6648    1.0000 </r>
       <r>   -8.5052    1.0000 </r>
       <r>   -8.4029    1.0000 </r>
       <r>   -8.2880    1.0000 </r>
       <r>   -8.1338    1.0000 </r>
       <r>   -8.0941    1.0000 </r>
       <r>   -8.0655    1.0000 </r>
       <r>   -7.9715    1.0000 </r>
       <r>   -7.8075    1.0000 </r>
       <r>   -7.6206    1.0000 </r>
       <r>   -7.3614    1.0000 </r>
       <r>   -7.3375    1.0000 </r>
       <r>   -7.2665    1.0000 </r>
       <r>   -7.1968    1.0000 </r>
       <r>   -6.9202    1.0000 </r>
       <r>   -6.8737    1.0000 </r>
       <r>   -6.6921    1.0000 </r>
       <r>   -6.5906    1.0000 </r>
       <r>   -6.3491    1.0000 </r>
       <r>   -6.1851    1.0000 </r>
       <r>   -6.0738    1.0000 </r>
       <r>   -5.9220    1.0000 </r>
       <r>   -5.7397    1.0000 </r>
       <r>   -5.6410    1.0000 </r>
       <r>   -5.3225    1.0000 </r>
       <r>   -5.1150    1.0000 </r>
       <r>   -4.9702    1.0000 </r>
       <r>   -4.9228    1.0000 </r>
       <r>   -4.2700    1.0000 </r>
       <r>   -4.1689    1.0000 </r>
       <r>   -3.3369    1.0000 </r>
       <r>   -3.1371    0.9996 </r>
       <r>   -2.8041    0.0000 </r>
       <r>   -1.5914    0.0000 </r>
       <r>   -1.4238    0.0000 </r>
       <r>   -0.8401    0.0000 </r>
       <r>   -0.8193    0.0000 </r>
       <r>   -0.7062    0.0000 </r>
       <r>   -0.6680    0.0000 </r>
       <r>   -0.1288    0.0000 </r>
       <r>   -0.0063    0.0000 </r>
       <r>    0.2927    0.0000 </r>
       <r>    0.7042    0.0000 </r>
       <r>    0.7270    0.0000 </r>
       <r>    1.0984    0.0000 </r>
       <r>    1.1769    0.0000 </r>
       <r>    1.3646    0.0000 </r>
       <r>    1.4627    0.0000 </r>
       <r>    1.5373    0.0000 </r>
       <r>    1.5707    0.0000 </r>
       <r>    1.6369    0.0000 </r>
       <r>    1.8231    0.0000 </r>
       <r>    1.9119    0.0000 </r>
       <r>    2.0397    0.0000 </r>
       <r>    2.2256    0.0000 </r>
       <r>    2.2654    0.0000 </r>
       <r>    2.3350    0.0000 </r>
       <r>    2.4252    0.0000 </r>
       <r>    2.7308    0.0000 </r>
       <r>    3.2550    0.0000 </r>
       <r>    3.6220    0.0000 </r>
      </set>
      <set comment="kpoint 4">
       <r>  -31.7407    1.0000 </r>
       <r>  -22.1892    1.0000 </r>
       <r>  -21.8695    1.0000 </r>
       <r>  -21.6615    1.0000 </r>
       <r>  -21.4548    1.0000 </r>
       <r>  -21.0349    1.0000 </r>
       <r>  -20.8974    1.0000 </r>
       <r>  -20.7277    1.0000 </r>
       <r>  -20.4203    1.0000 </r>
       <r>  -20.1624    1.0000 </r>
       <r>  -19.7872    1.0000 </r>
       <r>  -19.6994    1.0000 </r>
       <r>  -19.3265    1.0000 </r>
       <r>  -19.2431    1.0000 </r>
       <r>  -19.0619    1.0000 </r>
       <r>  -18.5930    1.0000 </r>
       <r>  -18.4582    1.0000 </r>
       <r>  -18.1215    1.0000 </r>
       <r>  -18.0632    1.0000 </r>
       <r>  -17.5911    1.0000 </r>
       <r>  -17.4981    1.0000 </r>
       <r>  -17.3010    1.0000 </r>
       <r>  -17.2768    1.0000 </r>
       <r>  -16.8517    1.0000 </r>
       <r>  -16.6587    1.0000 </r>
       <r>  -16.1764    1.0000 </r>
       <r>  -15.9782    1.0000 </r>
       <r>  -15.8479    1.0000 </r>
       <r>  -15.2985    1.0000 </r>
       <r>  -15.1700    1.0000 </r>
       <r>  -15.1345    1.0000 </r>
       <r>  -14.8851    1.0000 </r>
       <r>  -14.7820    1.0000 </r>
       <r>  -14.4783    1.0000 </r>
       <r>  -14.4562    1.0000 </r>
       <r>  -13.7674    1.0000 </r>
       <r>  -13.7602    1.0000 </r>
       <r>  -13.1963    1.0000 </r>
       <r>  -13.0896    1.0000 </r>
       <r>  -12.9344    1.0000 </r>
       <r>  -12.9047    1.0000 </r>
       <r>  -12.5854    1.0000 </r>
       <r>  -12.5502    1.0000 </r>
       <r>  -12.3903    1.0000 </r>
       <r>  -12.0223    1.0000 </r>
       <r>  -11.6637    1.0000 </r>
       <r>  -11.4476    1.0000 </r>
       <r>  -11.2964    1.0000 </r>
       <r>  -11.1219    1.0000 </r>
       <r>  -10.9145    1.0000 </r>
       <r>  -10.8503    1.0000 </r>
       <r>  -10.5845    1.0000 </r>
       <r>  -10.5329    1.0000 </r>
       <r>  -10.2857    1.0000 </r>
       <r>  -10.2371    1.0000 </r>
       <r>  -10.1615    1.0000 </r>
       <r>  -10.0494    1.0000 </r>
       <r>   -9.8532    1.0000 </r>
       <r>   -9.8205    1.0000 </r>
       <r>   -9.6542    1.0000 </r>
       <r>   -9.6072    1.0000 </r>
       <r>   -9.5610    1.0000 </r>
       <r>   -9.5276    1.0000 </r>
       <r>   -9.3713    1.0000 </r>
       <r>   -9.3404    1.0000 </r>
       <r>   -9.2601    1.0000 </r>
       <r>   -9.1758    1.0000 </r>
       <r>   -9.0997    1.0000 </r>
       <r>   -9.0826    1.0000 </r>
       <r>   -8.8648    1.0000 </r>
       <r>   -8.7137    1.0000 </r>
       <r>   -8.6647    1.0000 </r>
       <r>   -8.5042    1.0000 </r>
       <r>   -8.4026    1.0000 </r>
       <r>   -8.2875    1.0000 </r>
       <r>   -8.1324    1.0000 </r>
       <r>   -8.0957    1.0000 </r>
       <r>   -8.0673    1.0000 </r>
       <r>   -7.9717    1.0000 </r>
       <r>   -7.8081    1.0000 </r>
       <r>   -7.6199    1.0000 </r>
       <r>   -7.3594    1.0000 </r>
       <r>   -7.3364    1.0000 </r>
       <r>   -7.2671    1.0000 </r>
       <r>   -7.1973    1.0000 </r>
       <r>   -6.9204    1.0000 </r>
       <r>   -6.8727    1.0000 </r>
       <r>   -6.6935    1.0000 </r>
       <r>   -6.5913    1.0000 </r>
       <r>   -6.3493    1.0000 </r>
       <r>   -6.1866    1.0000 </r>
       <r>   -6.0723    1.0000 </r>
       <r>   -5.9218    1.0000 </r>
       <r>   -5.7392    1.0000 </r>
       <r>   -5.6406    1.0000 </r>
       <r>   -5.3227    1.0000 </r>
       <r>   -5.1152    1.0000 </r>
       <r>   -4.9702    1.0000 </r>
       <r>   -4.9228    1.0000 </r>
       <r>   -4.2701    1.0000 </r>
       <r>   -4.1690    1.0000 </r>
       <r>   -3.3368    1.0000 </r>
       <r>   -3.1371    0.9996 </r>
       <r>   -2.8041    0.0000 </r>
       <r>   -1.5915    0.0000 </r>
       <r>   -1.4238    0.0000 </r>
       <r>   -0.8401    0.0000 </r>
       <r>   -0.8193    0.0000 </r>
       <r>   -0.7062    0.0000 </r>
       <r>   -0.6681    0.0000 </r>
       <r>   -0.1288    0.0000 </r>
       <r>   -0.0063    0.0000 </r>
       <r>    0.2927    0.0000 </r>
       <r>    0.7051    0.0000 </r>
       <r>    0.7269    0.0000 </r>
       <r>    1.1002    0.0000 </r>
       <r>    1.1748    0.0000 </r>
       <r>    1.3656    0.0000 </r>
       <r>    1.4635    0.0000 </r>
       <r>    1.5585    0.0000 </r>
       <r>    1.5756    0.0000 </r>
       <r>    1.7173    0.0000 </r>
       <r>    1.8240    0.0000 </r>
       <r>    2.1700    0.0000 </r>
       <r>    2.3340    0.0000 </r>
       <r>    2.3952    0.0000 </r>
       <r>    2.6121    0.0000 </r>
       <r>    2.7605    0.0000 </r>
       <r>    2.8332    0.0000 </r>
       <r>    3.2028    0.0000 </r>
       <r>    3.5965    0.0000 </r>
       <r>    4.1655    0.0000 </r>
      </set>
      <set comment="kpoint 5">
       <r>  -31.7407    1.0000 </r>
       <r>  -22.0807    1.0000 </r>
       <r>  -22.0078    1.0000 </r>
       <r>  -21.8019    1.0000 </r>
       <r>  -21.1723    1.0000 </r>
       <r>  -21.1507    1.0000 </r>
       <r>  -20.8676    1.0000 </r>
       <r>  -20.4134    1.0000 </r>
       <r>  -20.3391    1.0000 </r>
       <r>  -20.1722    1.0000 </r>
       <r>  -20.1506    1.0000 </r>
       <r>  -20.1432    1.0000 </r>
       <r>  -19.5671    1.0000 </r>
       <r>  -18.8265    1.0000 </r>
       <r>  -18.6748    1.0000 </r>
       <r>  -18.3727    1.0000 </r>
       <r>  -18.3491    1.0000 </r>
       <r>  -18.3366    1.0000 </r>
       <r>  -17.9303    1.0000 </r>
       <r>  -17.8017    1.0000 </r>
       <r>  -17.6018    1.0000 </r>
       <r>  -17.2617    1.0000 </r>
       <r>  -17.1533    1.0000 </r>
       <r>  -17.1209    1.0000 </r>
       <r>  -16.5434    1.0000 </r>
       <r>  -16.4379    1.0000 </r>
       <r>  -16.2846    1.0000 </r>
       <r>  -15.8088    1.0000 </r>
       <r>  -15.6292    1.0000 </r>
       <r>  -15.1757    1.0000 </r>
       <r>  -14.9698    1.0000 </r>
       <r>  -14.6528    1.0000 </r>
       <r>  -13.9604    1.0000 </r>
       <r>  -13.9396    1.0000 </r>
       <r>  -13.9248    1.0000 </r>
       <r>  -13.8739    1.0000 </r>
       <r>  -13.8641    1.0000 </r>
       <r>  -13.7923    1.0000 </r>
       <r>  -13.6749    1.0000 </r>
       <r>  -13.4951    1.0000 </r>
       <r>  -13.0380    1.0000 </r>
       <r>  -12.4748    1.0000 </r>
       <r>  -12.2542    1.0000 </r>
       <r>  -12.0716    1.0000 </r>
       <r>  -11.8237    1.0000 </r>
       <r>  -11.7734    1.0000 </r>
       <r>  -11.5635    1.0000 </r>
       <r>  -11.5459    1.0000 </r>
       <r>  -11.5230    1.0000 </r>
       <r>  -10.9295    1.0000 </r>
       <r>  -10.8179    1.0000 </r>
       <r>  -10.5305    1.0000 </r>
       <r>  -10.2062    1.0000 </r>
       <r>  -10.2040    1.0000 </r>
       <r>  -10.1944    1.0000 </r>
       <r>  -10.0950    1.0000 </r>
       <r>  -10.0529    1.0000 </r>
       <r>  -10.0222    1.0000 </r>
       <r>   -9.9031    1.0000 </r>
       <r>   -9.7520    1.0000 </r>
       <r>   -9.7482    1.0000 </r>
       <r>   -9.5644    1.0000 </r>
       <r>   -9.4411    1.0000 </r>
       <r>   -9.4076    1.0000 </r>
       <r>   -9.1985    1.0000 </r>
       <r>   -9.0462    1.0000 </r>
       <r>   -9.0346    1.0000 </r>
       <r>   -8.9026    1.0000 </r>
       <r>   -8.8843    1.0000 </r>
       <r>   -8.6889    1.0000 </r>
       <r>   -8.6375    1.0000 </r>
       <r>   -8.6356    1.0000 </r>
       <r>   -8.6242    1.0000 </r>
       <r>   -8.5824    1.0000 </r>
       <r>   -8.3747    1.0000 </r>
       <r>   -8.2524    1.0000 </r>
       <r>   -8.1648    1.0000 </r>
       <r>   -8.0352    1.0000 </r>
       <r>   -7.9839    1.0000 </r>
       <r>   -7.8797    1.0000 </r>
       <r>   -7.8582    1.0000 </r>
       <r>   -7.8549    1.0000 </r>
       <r>   -7.2250    1.0000 </r>
       <r>   -7.1849    1.0000 </r>
       <r>   -7.1280    1.0000 </r>
       <r>   -6.8857    1.0000 </r>
       <r>   -6.7220    1.0000 </r>
       <r>   -6.6129    1.0000 </r>
       <r>   -6.4603    1.0000 </r>
       <r>   -6.2677    1.0000 </r>
       <r>   -6.1027    1.0000 </r>
       <r>   -5.9168    1.0000 </r>
       <r>   -5.9113    1.0000 </r>
       <r>   -5.8979    1.0000 </r>
       <r>   -5.4524    1.0000 </r>
       <r>   -5.4256    1.0000 </r>
       <r>   -5.1221    1.0000 </r>
       <r>   -5.0143    1.0000 </r>
       <r>   -4.9805    1.0000 </r>
       <r>   -4.9579    1.0000 </r>
       <r>   -3.7329    1.0000 </r>
       <r>   -3.4585    1.0000 </r>
       <r>   -3.2802    1.0000 </r>
       <r>   -2.3874    0.0000 </r>
       <r>   -2.2243    0.0000 </r>
       <r>   -0.9288    0.0000 </r>
       <r>   -0.8822    0.0000 </r>
       <r>   -0.8679    0.0000 </r>
       <r>   -0.5386    0.0000 </r>
       <r>   -0.2641    0.0000 </r>
       <r>   -0.2113    0.0000 </r>
       <r>    0.2517    0.0000 </r>
       <r>    0.2580    0.0000 </r>
       <r>    0.2603    0.0000 </r>
       <r>    0.5989    0.0000 </r>
       <r>    0.7919    0.0000 </r>
       <r>    0.9486    0.0000 </r>
       <r>    0.9739    0.0000 </r>
       <r>    1.0616    0.0000 </r>
       <r>    1.7334    0.0000 </r>
       <r>    1.7446    0.0000 </r>
       <r>    1.7666    0.0000 </r>
       <r>    1.8259    0.0000 </r>
       <r>    2.1104    0.0000 </r>
       <r>    2.1142    0.0000 </r>
       <r>    2.1195    0.0000 </r>
       <r>    2.2462    0.0000 </r>
       <r>    2.2481    0.0000 </r>
       <r>    2.3616    0.0000 </r>
       <r>    2.9988    0.0000 </r>
       <r>    3.0121    0.0000 </r>
       <r>    3.0357    0.0000 </r>
      </set>
     </set>
    </set>
   </array>
  </eigenvalues>
  <separator name="orbital magnetization" >
   <v name="MAGDIPOLOUT">      0.00000000      0.00000000      0.00000000</v>
  </separator>
  <dos>
   <i name="efermi">     -3.01739643 </i>
   <total>
    <array>
     <dimension dim="1">gridpoints</dimension>
     <dimension dim="2">spin</dimension>
     <field>energy</field>
     <field>total</field>
     <field>integrated</field>
     <set>
      <set comment="spin 1">
       <r>   -33.5360     0.0000     0.0000 </r>
       <r>   -33.4044     0.0000     0.0000 </r>
       <r>   -33.2727     0.0000     0.0000 </r>
       <r>   -33.1411     0.0000     0.0000 </r>
       <r>   -33.0094     0.0000     0.0000 </r>
       <r>   -32.8778     0.0000     0.0000 </r>
       <r>   -32.7461     0.0000     0.0000 </r>
       <r>   -32.6144     0.0000     0.0000 </r>
       <r>   -32.4828     0.0000     0.0000 </r>
       <r>   -32.3511     0.0000     0.0000 </r>
       <r>   -32.2195     0.0000     0.0000 </r>
       <r>   -32.0878     0.0000     0.0000 </r>
       <r>   -31.9562     0.0000     0.0000 </r>
       <r>   -31.8245     0.1347     0.0177 </r>
       <r>   -31.6928    13.7186     1.8239 </r>
       <r>   -31.5612     1.3377     2.0000 </r>
       <r>   -31.4295     0.0000     2.0000 </r>
       <r>   -31.2979     0.0000     2.0000 </r>
       <r>   -31.1662     0.0000     2.0000 </r>
       <r>   -31.0346     0.0000     2.0000 </r>
       <r>   -30.9029     0.0000     2.0000 </r>
       <r>   -30.7713     0.0000     2.0000 </r>
       <r>   -30.6396     0.0000     2.0000 </r>
       <r>   -30.5079     0.0000     2.0000 </r>
       <r>   -30.3763     0.0000     2.0000 </r>
       <r>   -30.2446     0.0000     2.0000 </r>
       <r>   -30.1130     0.0000     2.0000 </r>
       <r>   -29.9813     0.0000     2.0000 </r>
       <r>   -29.8497     0.0000     2.0000 </r>
       <r>   -29.7180     0.0000     2.0000 </r>
       <r>   -29.5863     0.0000     2.0000 </r>
       <r>   -29.4547     0.0000     2.0000 </r>
       <r>   -29.3230     0.0000     2.0000 </r>
       <r>   -29.1914     0.0000     2.0000 </r>
       <r>   -29.0597     0.0000     2.0000 </r>
       <r>   -28.9281     0.0000     2.0000 </r>
       <r>   -28.7964     0.0000     2.0000 </r>
       <r>   -28.6648     0.0000     2.0000 </r>
       <r>   -28.5331     0.0000     2.0000 </r>
       <r>   -28.4014     0.0000     2.0000 </r>
       <r>   -28.2698     0.0000     2.0000 </r>
       <r>   -28.1381     0.0000     2.0000 </r>
       <r>   -28.0065     0.0000     2.0000 </r>
       <r>   -27.8748     0.0000     2.0000 </r>
       <r>   -27.7432     0.0000     2.0000 </r>
       <r>   -27.6115     0.0000     2.0000 </r>
       <r>   -27.4798     0.0000     2.0000 </r>
       <r>   -27.3482     0.0000     2.0000 </r>
       <r>   -27.2165     0.0000     2.0000 </r>
       <r>   -27.0849     0.0000     2.0000 </r>
       <r>   -26.9532     0.0000     2.0000 </r>
       <r>   -26.8216     0.0000     2.0000 </r>
       <r>   -26.6899     0.0000     2.0000 </r>
       <r>   -26.5583     0.0000     2.0000 </r>
       <r>   -26.4266     0.0000     2.0000 </r>
       <r>   -26.2949     0.0000     2.0000 </r>
       <r>   -26.1633     0.0000     2.0000 </r>
       <r>   -26.0316     0.0000     2.0000 </r>
       <r>   -25.9000     0.0000     2.0000 </r>
       <r>   -25.7683     0.0000     2.0000 </r>
       <r>   -25.6367     0.0000     2.0000 </r>
       <r>   -25.5050     0.0000     2.0000 </r>
       <r>   -25.3733     0.0000     2.0000 </r>
       <r>   -25.2417     0.0000     2.0000 </r>
       <r>   -25.1100     0.0000     2.0000 </r>
       <r>   -24.9784     0.0000     2.0000 </r>
       <r>   -24.8467     0.0000     2.0000 </r>
       <r>   -24.7151     0.0000     2.0000 </r>
       <r>   -24.5834     0.0000     2.0000 </r>
       <r>   -24.4518     0.0000     2.0000 </r>
       <r>   -24.3201     0.0000     2.0000 </r>
       <r>   -24.1884     0.0000     2.0000 </r>
       <r>   -24.0568     0.0000     2.0000 </r>
       <r>   -23.9251     0.0000     2.0000 </r>
       <r>   -23.7935     0.0000     2.0000 </r>
       <r>   -23.6618     0.0000     2.0000 </r>
       <r>   -23.5302     0.0000     2.0000 </r>
       <r>   -23.3985     0.0000     2.0000 </r>
       <r>   -23.2668     0.0000     2.0000 </r>
       <r>   -23.1352     0.0000     2.0000 </r>
       <r>   -23.0035     0.0000     2.0000 </r>
       <r>   -22.8719     0.0000     2.0000 </r>
       <r>   -22.7402     0.0000     2.0000 </r>
       <r>   -22.6086     0.0000     2.0000 </r>
       <r>   -22.4769     0.0000     2.0000 </r>
       <r>   -22.3453     0.0307     2.0040 </r>
       <r>   -22.2136     4.0501     2.5373 </r>
       <r>   -22.0819     9.4219     3.7777 </r>
       <r>   -21.9503     5.0012     4.4362 </r>
       <r>   -21.8186    10.5019     5.8188 </r>
       <r>   -21.6870     5.4479     6.5361 </r>
       <r>   -21.5553     7.9905     7.5880 </r>
       <r>   -21.4237    12.3297     9.2113 </r>
       <r>   -21.2920     5.9821     9.9989 </r>
       <r>   -21.1603     3.4695    10.4557 </r>
       <r>   -21.0287     9.0608    11.6486 </r>
       <r>   -20.8970    10.5876    13.0425 </r>
       <r>   -20.7654    10.3995    14.4117 </r>
       <r>   -20.6337     8.6483    15.5503 </r>
       <r>   -20.5021     0.1656    15.5721 </r>
       <r>   -20.3704    12.8329    17.2616 </r>
       <r>   -20.2388     4.2032    17.8150 </r>
       <r>   -20.1071    18.3781    20.2346 </r>
       <r>   -19.9754     1.6027    20.4456 </r>
       <r>   -19.8438     3.3298    20.8840 </r>
       <r>   -19.7121    13.6293    22.6784 </r>
       <r>   -19.5805     8.6953    23.8232 </r>
       <r>   -19.4488     6.3916    24.6647 </r>
       <r>   -19.3172     6.3226    25.4971 </r>
       <r>   -19.1855    14.3842    27.3909 </r>
       <r>   -19.0538     7.2297    28.3427 </r>
       <r>   -18.9222     5.0926    29.0132 </r>
       <r>   -18.7905     5.2861    29.7091 </r>
       <r>   -18.6589     4.7903    30.3398 </r>
       <r>   -18.5272    14.2346    32.2139 </r>
       <r>   -18.3956    11.1559    33.6826 </r>
       <r>   -18.2639     9.0649    34.8761 </r>
       <r>   -18.1323     4.2132    35.4308 </r>
       <r>   -18.0006    15.8277    37.5146 </r>
       <r>   -17.8689     4.7739    38.1431 </r>
       <r>   -17.7373     3.8618    38.6515 </r>
       <r>   -17.6056     5.1183    39.3254 </r>
       <r>   -17.4740    16.1131    41.4468 </r>
       <r>   -17.3423     4.1027    41.9869 </r>
       <r>   -17.2107    21.6227    44.8337 </r>
       <r>   -17.0790     6.8902    45.7408 </r>
       <r>   -16.9473     3.6309    46.2189 </r>
       <r>   -16.8157     8.5897    47.3498 </r>
       <r>   -16.6840     3.9616    47.8713 </r>
       <r>   -16.5524     9.1089    49.0706 </r>
       <r>   -16.4207     8.8030    50.2295 </r>
       <r>   -16.2891     3.1566    50.6451 </r>
       <r>   -16.1574     8.9868    51.8283 </r>
       <r>   -16.0258     5.8621    52.6001 </r>
       <r>   -15.8941    13.2207    54.3407 </r>
       <r>   -15.7624    12.2034    55.9473 </r>
       <r>   -15.6308     2.0265    56.2141 </r>
       <r>   -15.4991     4.1120    56.7555 </r>
       <r>   -15.3675     2.9599    57.1452 </r>
       <r>   -15.2358     9.9728    58.4582 </r>
       <r>   -15.1042    21.7345    61.3197 </r>
       <r>   -14.9725     5.1313    61.9952 </r>
       <r>   -14.8408    11.2687    63.4788 </r>
       <r>   -14.7092    10.7381    64.8926 </r>
       <r>   -14.5775     6.4575    65.7427 </r>
       <r>   -14.4459    14.8072    67.6922 </r>
       <r>   -14.3142     5.7135    68.4444 </r>
       <r>   -14.1826     0.8272    68.5533 </r>
       <r>   -14.0509     4.2543    69.1134 </r>
       <r>   -13.9193     9.3259    70.3412 </r>
       <r>   -13.7876    16.1152    72.4629 </r>
       <r>   -13.6559    19.0906    74.9763 </r>
       <r>   -13.5243     1.7154    75.2021 </r>
       <r>   -13.3926     2.6781    75.5547 </r>
       <r>   -13.2610     0.3479    75.6005 </r>
       <r>   -13.1293    10.8332    77.0268 </r>
       <r>   -12.9977    13.8456    78.8496 </r>
       <r>   -12.8660    20.5842    81.5597 </r>
       <r>   -12.7343     1.6566    81.7778 </r>
       <r>   -12.6027     3.8629    82.2864 </r>
       <r>   -12.4710    18.2042    84.6831 </r>
       <r>   -12.3394    10.9575    86.1257 </r>
       <r>   -12.2077     3.7901    86.6247 </r>
       <r>   -12.0761     2.6660    86.9757 </r>
       <r>   -11.9444    12.6937    88.6469 </r>
       <r>   -11.8127     3.1267    89.0585 </r>
       <r>   -11.6811    15.2586    91.0674 </r>
       <r>   -11.5494    18.3617    93.4849 </r>
       <r>   -11.4178    13.7064    95.2894 </r>
       <r>   -11.2861     8.2419    96.3745 </r>
       <r>   -11.1545     5.7201    97.1276 </r>
       <r>   -11.0228     8.3141    98.2222 </r>
       <r>   -10.8912    11.7979    99.7754 </r>
       <r>   -10.7595    17.9834   102.1431 </r>
       <r>   -10.6278     1.7629   102.3752 </r>
       <r>   -10.4962    20.3824   105.0586 </r>
       <r>   -10.3645     4.2422   105.6171 </r>
       <r>   -10.2329    22.9905   108.6440 </r>
       <r>   -10.1012    26.2627   112.1016 </r>
       <r>    -9.9696    19.2027   114.6298 </r>
       <r>    -9.8379    13.5278   116.4108 </r>
       <r>    -9.7062    18.0781   118.7909 </r>
       <r>    -9.5746    26.5341   122.2843 </r>
       <r>    -9.4429    22.0867   125.1922 </r>
       <r>    -9.3113    26.4144   128.6698 </r>
       <r>    -9.1796    23.8930   131.8154 </r>
       <r>    -9.0480    28.3427   135.5469 </r>
       <r>    -8.9163    20.1267   138.1967 </r>
       <r>    -8.7847    18.8694   140.6810 </r>
       <r>    -8.6530    21.7382   143.5430 </r>
       <r>    -8.5213    18.3836   145.9633 </r>
       <r>    -8.3897    16.2208   148.0989 </r>
       <r>    -8.2580    15.5872   150.1510 </r>
       <r>    -8.1264    15.0197   152.1285 </r>
       <r>    -7.9947    29.2518   155.9796 </r>
       <r>    -7.8631    16.1918   158.1114 </r>
       <r>    -7.7314    17.4928   160.4144 </r>
       <r>    -7.5997     7.4864   161.4001 </r>
       <r>    -7.4681     2.8822   161.7795 </r>
       <r>    -7.3364    15.4048   163.8077 </r>
       <r>    -7.2048    32.7605   168.1208 </r>
       <r>    -7.0731    17.4013   170.4118 </r>
       <r>    -6.9415     3.4925   170.8716 </r>
       <r>    -6.8098    20.0624   173.5129 </r>
       <r>    -6.6782    11.8959   175.0791 </r>
       <r>    -6.5465    16.4472   177.2445 </r>
       <r>    -6.4148     7.3930   178.2178 </r>
       <r>    -6.2832    12.0434   179.8034 </r>
       <r>    -6.1515    15.3953   181.8303 </r>
       <r>    -6.0199    14.1498   183.6932 </r>
       <r>    -5.8882    19.0923   186.2068 </r>
       <r>    -5.7566     8.3540   187.3067 </r>
       <r>    -5.6249    13.7716   189.1198 </r>
       <r>    -5.4932     3.8213   189.6229 </r>
       <r>    -5.3616     7.4726   190.6067 </r>
       <r>    -5.2299     9.1429   191.8104 </r>
       <r>    -5.0983    10.9167   193.2477 </r>
       <r>    -4.9666    17.2201   195.5148 </r>
       <r>    -4.8350    17.1955   197.7787 </r>
       <r>    -4.7033     3.2219   198.2029 </r>
       <r>    -4.5717     0.1467   198.2222 </r>
       <r>    -4.4400     0.0000   198.2222 </r>
       <r>    -4.3083     2.0544   198.4927 </r>
       <r>    -4.1767    17.2654   200.7658 </r>
       <r>    -4.0450     5.9963   201.5553 </r>
       <r>    -3.9134     0.0023   201.5556 </r>
       <r>    -3.7817     0.2826   201.5928 </r>
       <r>    -3.6501     3.0609   201.9958 </r>
       <r>    -3.5184     0.1849   202.0201 </r>
       <r>    -3.3867     3.9557   202.5409 </r>
       <r>    -3.2551    12.2960   204.1597 </r>
       <r>    -3.1234    10.4169   205.5312 </r>
       <r>    -2.9918     3.5886   206.0036 </r>
       <r>    -2.8601     2.1388   206.2852 </r>
       <r>    -2.7285     9.4848   207.5339 </r>
       <r>    -2.5968     0.1641   207.5556 </r>
       <r>    -2.4652     0.0470   207.5617 </r>
       <r>    -2.3335     3.1172   207.9721 </r>
       <r>    -2.2018     2.7016   208.3278 </r>
       <r>    -2.0702     0.8858   208.4444 </r>
       <r>    -1.9385     0.0000   208.4444 </r>
       <r>    -1.8069     0.0000   208.4444 </r>
       <r>    -1.6752     0.0902   208.4563 </r>
       <r>    -1.5436     9.1934   209.6667 </r>
       <r>    -1.4119    11.8335   211.2247 </r>
       <r>    -1.2802     4.2010   211.7777 </r>
       <r>    -1.1486     0.0003   211.7778 </r>
       <r>    -1.0169     0.8132   211.8848 </r>
       <r>    -0.8853     9.5228   213.1386 </r>
       <r>    -0.7536    24.0161   216.3004 </r>
       <r>    -0.6220    18.6535   218.7563 </r>
       <r>    -0.4903     5.6670   219.5024 </r>
       <r>    -0.3587     0.4166   219.5572 </r>
       <r>    -0.2270     4.0047   220.0845 </r>
       <r>    -0.0953    11.1741   221.5556 </r>
       <r>     0.0363    10.6584   222.9589 </r>
       <r>     0.1680     1.2224   223.1198 </r>
       <r>     0.2996    14.7647   225.0637 </r>
       <r>     0.4313     8.5897   226.1946 </r>
       <r>     0.5629     3.2743   226.6256 </r>
       <r>     0.6946     9.4410   227.8686 </r>
       <r>     0.8263    18.3496   230.2844 </r>
       <r>     0.9579     6.0456   231.0804 </r>
       <r>     1.0896    10.2918   232.4353 </r>
       <r>     1.2212    15.9807   234.5393 </r>
       <r>     1.3529     7.4217   235.5164 </r>
       <r>     1.4845    15.0265   237.4947 </r>
       <r>     1.6162    23.0342   240.5273 </r>
       <r>     1.7478    16.1093   242.6482 </r>
       <r>     1.8795    27.2915   246.2413 </r>
       <r>     2.0112     8.5237   247.3635 </r>
       <r>     2.1428    16.0980   249.4829 </r>
       <r>     2.2745    25.3507   252.8205 </r>
       <r>     2.4061    28.7512   256.6058 </r>
       <r>     2.5378     8.9326   257.7818 </r>
       <r>     2.6694     6.1472   258.5911 </r>
       <r>     2.8011     9.2849   259.8135 </r>
       <r>     2.9328     4.9356   260.4634 </r>
       <r>     3.0644     8.9386   261.6402 </r>
       <r>     3.1961     2.6406   261.9878 </r>
       <r>     3.3277     5.0885   262.6578 </r>
       <r>     3.4594     0.0679   262.6667 </r>
       <r>     3.5910     2.1216   262.9460 </r>
       <r>     3.7227     4.6218   263.5545 </r>
       <r>     3.8543     0.0081   263.5556 </r>
       <r>     3.9860     0.0000   263.5556 </r>
       <r>     4.1177     0.2966   263.5946 </r>
       <r>     4.2493     3.0492   263.9960 </r>
       <r>     4.3810     0.0300   264.0000 </r>
       <r>     4.5126     0.0000   264.0000 </r>
       <r>     4.6443     0.0000   264.0000 </r>
       <r>     4.7759     0.0000   264.0000 </r>
       <r>     4.9076     0.0000   264.0000 </r>
       <r>     5.0393     0.0000   264.0000 </r>
       <r>     5.1709     0.0000   264.0000 </r>
       <r>     5.3026     0.0000   264.0000 </r>
       <r>     5.4342     0.0000   264.0000 </r>
       <r>     5.5659     0.0000   264.0000 </r>
       <r>     5.6975     0.0000   264.0000 </r>
       <r>     5.8292     0.0000   264.0000 </r>
       <r>     5.9608     0.0000   264.0000 </r>
      </set>
     </set>
    </array>
   </total>
  </dos>
 </calculation>
 <structure name="finalpos" >
  <crystal>
   <varray name="basis" >
    <v>      12.30000019       0.00000000       0.00000000 </v>
    <v>       6.15000080      10.65211222       0.00000000 </v>
    <v>       0.00000000       0.00000000      20.00000000 </v>
   </varray>
   <i name="volume">   2620.41964732 </i>
   <varray name="rec_basis" >
    <v>       0.08130081      -0.04693905       0.00000000 </v>
    <v>       0.00000000       0.09387809       0.00000000 </v>
    <v>       0.00000000       0.00000000       0.05000000 </v>
   </varray>
  </crystal>
  <varray name="positions" >
   <v>       0.00000000       0.00000000       0.41799748 </v>
   <v>       0.20000000       0.00000000       0.41799748 </v>
   <v>       0.40000000       0.00000000       0.41799748 </v>
   <v>       0.60000000       0.00000000       0.41799748 </v>
   <v>       0.80000000       0.00000000       0.41799748 </v>
   <v>       0.00000000       0.20000000       0.41799748 </v>
   <v>       0.20000000       0.20000000       0.41799748 </v>
   <v>       0.40000000       0.20000000       0.41799748 </v>
   <v>       0.60000000       0.20000000       0.41799748 </v>
   <v>       0.80000000       0.20000000       0.41799748 </v>
   <v>       0.00000000       0.40000000       0.41799748 </v>
   <v>       0.20000000       0.40000000       0.41799748 </v>
   <v>       0.40000000       0.40000000       0.41799748 </v>
   <v>       0.60000000       0.40000000       0.41799748 </v>
   <v>       0.80000000       0.40000000       0.41799748 </v>
   <v>       0.00000000       0.60000000       0.41799748 </v>
   <v>       0.20000000       0.60000000       0.41799748 </v>
   <v>       0.40000000       0.60000000       0.41799748 </v>
   <v>       0.60000000       0.60000000       0.41799748 </v>
   <v>       0.80000000       0.60000000       0.41799748 </v>
   <v>       0.00000000       0.80000000       0.41799748 </v>
   <v>       0.20000000       0.80000000       0.41799748 </v>
   <v>       0.40000000       0.80000000       0.41799748 </v>
   <v>       0.60000000       0.80000000       0.41799748 </v>
   <v>       0.80000000       0.80000000       0.41799748 </v>
   <v>       0.06666667       0.06666660       0.41800609 </v>
   <v>       0.26666667       0.06666660       0.41850609 </v>
   <v>       0.46666667       0.06666660       0.41800609 </v>
   <v>       0.66666667       0.06666660       0.41800609 </v>
   <v>       0.86666667       0.06666660       0.41800609 </v>
   <v>       0.06666667       0.26666660       0.41800609 </v>
   <v>       0.26666667       0.26666660       0.41800609 </v>
   <v>       0.46666667       0.26666660       0.41800609 </v>
   <v>       0.66666667       0.26666660       0.41800609 </v>
   <v>       0.86666667       0.26666660       0.41800609 </v>
   <v>       0.06666667       0.46666660       0.41800609 </v>
   <v>       0.26666667       0.46666660       0.41800609 </v>
   <v>       0.46666667       0.46666660       0.41800609 </v>
   <v>       0.66666667       0.46666660       0.41800609 </v>
   <v>       0.86666667       0.46666660       0.41800609 </v>
   <v>       0.06666667       0.66666660       0.41800609 </v>
   <v>       0.26666667       0.66666660       0.41800609 </v>
   <v>       0.46666667       0.66666660       0.41800609 </v>
   <v>       0.66666667       0.66666660       0.41800609 </v>
   <v>       0.86666667       0.66666660       0.41800609 </v>
   <v>       0.06666667       0.86666660       0.41800609 </v>
   <v>       0.26666667       0.86666660       0.41800609 </v>
   <v>       0.46666667       0.86666660       0.41800609 </v>
   <v>       0.66666667       0.86666660       0.41800609 </v>
   <v>       0.86666667       0.86666660       0.41800609 </v>
   <v>       0.40000000       0.40000000       0.46800609 </v>
  </varray>
  <varray name="velocities" >
   <v>       0.00000000       0.00000000       0.00000000 </v>
   <v>       0.00000000       0.00000000       0.00000000 </v>
   <v>       0.00000000       0.00000000       0.00000000 </v>
   <v>       0.00000000       0.00000000       0.00000000 </v>
   <v>       0.00000000       0.00000000       0.00000000 </v>
   <v>       0.00000000       0.00000000       0.00000000 </v>
   <v>       0.00000000       0.00000000       0.00000000 </v>
   <v>       0.00000000       0.00000000       0.00000000 </v>
   <v>       0.00000000       0.00000000       0.00000000 </v>
   <v>       0.00000000       0.00000000       0.00000000 </v>
   <v>       0.00000000       0.00000000       0.00000000 </v>
   <v>       0.00000000       0.00000000       0.00000000 </v>
   <v>       0.00000000       0.00000000       0.00000000 </v>
   <v>       0.00000000       0.00000000       0.00000000 </v>
   <v>       0.00000000       0.00000000       0.00000000 </v>
   <v>       0.00000000       0.00000000       0.00000000 </v>
   <v>       0.00000000       0.00000000       0.00000000 </v>
   <v>       0.00000000       0.00000000       0.00000000 </v>
   <v>       0.00000000       0.00000000       0.00000000 </v>
   <v>       0.00000000       0.00000000       0.00000000 </v>
   <v>       0.00000000       0.00000000       0.00000000 </v>
   <v>       0.00000000       0.00000000       0.00000000 </v>
   <v>       0.00000000       0.00000000       0.00000000 </v>
   <v>       0.00000000       0.00000000       0.00000000 </v>
   <v>       0.00000000       0.00000000       0.00000000 </v>
   <v>       0.00000000       0.00000000       0.00000000 </v>
   <v>       0.00000000       0.00000000       0.00000000 </v>
   <v>       0.00000000       0.00000000       0.00000000 </v>
   <v>       0.00000000       0.00000000       0.00000000 </v>
   <v>       0.00000000       0.00000000       0.00000000 </v>
   <v>       0.00000000       0.00000000       0.00000000 </v>
   <v>       0.00000000       0.00000000       0.00000000 </v>
   <v>       0.00000000       0.00000000       0.00000000 </v>
   <v>       0.00000000       0.00000000       0.00000000 </v>
   <v>       0.00000000       0.00000000       0.00000000 </v>
   <v>       0.00000000       0.00000000       0.00000000 </v>
   <v>       0.00000000       0.00000000       0.00000000 </v>
   <v>       0.00000000       0.00000000       0.00000000 </v>
   <v>       0.00000000       0.00000000       0.00000000 </v>
   <v>       0.00000000       0.00000000       0.00000000 </v>
   <v>       0.00000000       0.00000000       0.00000000 </v>
   <v>       0.00000000       0.00000000       0.00000000 </v>
   <v>       0.00000000       0.00000000       0.00000000 </v>
   <v>       0.00000000       0.00000000       0.00000000 </v>
   <v>       0.00000000       0.00000000       0.00000000 </v>
   <v>       0.00000000       0.00000000       0.00000000 </v>
   <v>       0.00000000       0.00000000       0.00000000 </v>
   <v>       0.00000000       0.00000000       0.00000000 </v>
   <v>       0.00000000       0.00000000       0.00000000 </v>
   <v>       0.00000000       0.00000000       0.00000000 </v>
   <v>       0.00000000       0.00000000       0.00000000 </v>
  </varray>
 </structure>
</modeling>
