  51  51   0   0
  0.5138078E+02  0.1230000E-08  0.1230000E-08  0.2000000E-08  0.5000000E-15
  1.000000000000000E-004
  CAR 
                                         
      5.97159451    -33.53130411  301     -3.01701970      1.00000000
    -33.531  0.0000E+00  0.0000E+00
    -33.400  0.0000E+00  0.0000E+00
    -33.268  0.0000E+00  0.0000E+00
    -33.136  0.0000E+00  0.0000E+00
    -33.005  0.0000E+00  0.0000E+00
    -32.873  0.0000E+00  0.0000E+00
    -32.741  0.0000E+00  0.0000E+00
    -32.610  0.0000E+00  0.0000E+00
    -32.478  0.0000E+00  0.0000E+00
    -32.346  0.0000E+00  0.0000E+00
    -32.215  0.0000E+00  0.0000E+00
    -32.083  0.0000E+00  0.0000E+00
    -31.951  0.8273E-08  0.1089E-08
    -31.820  0.1346E+00  0.1772E-01
    -31.688  0.1372E+02  0.1824E+01
    -31.556  0.1337E+01  0.2000E+01
    -31.424  0.2906E-05  0.2000E+01
    -31.293  0.0000E+00  0.2000E+01
    -31.161  0.0000E+00  0.2000E+01
    -31.029  0.0000E+00  0.2000E+01
    -30.898  0.0000E+00  0.2000E+01
    -30.766  0.0000E+00  0.2000E+01
    -30.634  0.0000E+00  0.2000E+01
    -30.503  0.0000E+00  0.2000E+01
    -30.371  0.0000E+00  0.2000E+01
    -30.239  0.0000E+00  0.2000E+01
    -30.108  0.0000E+00  0.2000E+01
    -29.976  0.0000E+00  0.2000E+01
    -29.844  0.0000E+00  0.2000E+01
    -29.713  0.0000E+00  0.2000E+01
    -29.581  0.0000E+00  0.2000E+01
    -29.449  0.0000E+00  0.2000E+01
    -29.318  0.0000E+00  0.2000E+01
    -29.186  0.0000E+00  0.2000E+01
    -29.054  0.0000E+00  0.2000E+01
    -28.923  0.0000E+00  0.2000E+01
    -28.791  0.0000E+00  0.2000E+01
    -28.659  0.0000E+00  0.2000E+01
    -28.528  0.0000E+00  0.2000E+01
    -28.396  0.0000E+00  0.2000E+01
    -28.264  0.0000E+00  0.2000E+01
    -28.133  0.0000E+00  0.2000E+01
    -28.001  0.0000E+00  0.2000E+01
    -27.869  0.0000E+00  0.2000E+01
    -27.738  0.0000E+00  0.2000E+01
    -27.606  0.0000E+00  0.2000E+01
    -27.474  0.0000E+00  0.2000E+01
    -27.343  0.0000E+00  0.2000E+01
    -27.211  0.0000E+00  0.2000E+01
    -27.079  0.0000E+00  0.2000E+01
    -26.947  0.0000E+00  0.2000E+01
    -26.816  0.0000E+00  0.2000E+01
    -26.684  0.0000E+00  0.2000E+01
    -26.552  0.0000E+00  0.2000E+01
    -26.421  0.0000E+00  0.2000E+01
    -26.289  0.0000E+00  0.2000E+01
    -26.157  0.0000E+00  0.2000E+01
    -26.026  0.0000E+00  0.2000E+01
    -25.894  0.0000E+00  0.2000E+01
    -25.762  0.0000E+00  0.2000E+01
    -25.631  0.0000E+00  0.2000E+01
    -25.499  0.0000E+00  0.2000E+01
    -25.367  0.0000E+00  0.2000E+01
    -25.236  0.0000E+00  0.2000E+01
    -25.104  0.0000E+00  0.2000E+01
    -24.972  0.0000E+00  0.2000E+01
    -24.841  0.0000E+00  0.2000E+01
    -24.709  0.0000E+00  0.2000E+01
    -24.577  0.0000E+00  0.2000E+01
    -24.446  0.0000E+00  0.2000E+01
    -24.314  0.0000E+00  0.2000E+01
    -24.182  0.0000E+00  0.2000E+01
    -24.051  0.0000E+00  0.2000E+01
    -23.919  0.0000E+00  0.2000E+01
    -23.787  0.0000E+00  0.2000E+01
    -23.656  0.0000E+00  0.2000E+01
    -23.524  0.0000E+00  0.2000E+01
    -23.392  0.0000E+00  0.2000E+01
    -23.261  0.0000E+00  0.2000E+01
    -23.129  0.0000E+00  0.2000E+01
    -22.997  0.0000E+00  0.2000E+01
    -22.866  0.0000E+00  0.2000E+01
    -22.734  0.0000E+00  0.2000E+01
    -22.602  0.0000E+00  0.2000E+01
    -22.470  0.1301E-07  0.2000E+01
    -22.339  0.4509E-01  0.2006E+01
    -22.207  0.4609E+01  0.2613E+01
    -22.075  0.9108E+01  0.3812E+01
    -21.944  0.4849E+01  0.4451E+01
    -21.812  0.1078E+02  0.5870E+01
    -21.680  0.5578E+01  0.6605E+01
    -21.549  0.7572E+01  0.7602E+01
    -21.417  0.1292E+02  0.9304E+01
    -21.285  0.5285E+01  0.1000E+02
    -21.154  0.3931E+01  0.1052E+02
    -21.022  0.9258E+01  0.1174E+02
    -20.890  0.1109E+02  0.1320E+02
    -20.759  0.9772E+01  0.1448E+02
    -20.627  0.8121E+01  0.1555E+02
    -20.495  0.2260E+00  0.1558E+02
    -20.364  0.1336E+02  0.1734E+02
    -20.232  0.3771E+01  0.1784E+02
    -20.100  0.1867E+02  0.2030E+02
    -19.969  0.1147E+01  0.2045E+02
    -19.837  0.3794E+01  0.2095E+02
    -19.705  0.1411E+02  0.2280E+02
    -19.574  0.8275E+01  0.2389E+02
    -19.442  0.5861E+01  0.2467E+02
    -19.310  0.7156E+01  0.2561E+02
    -19.179  0.1385E+02  0.2743E+02
    -19.047  0.7753E+01  0.2845E+02
    -18.915  0.4516E+01  0.2905E+02
    -18.784  0.5209E+01  0.2973E+02
    -18.652  0.5237E+01  0.3042E+02
    -18.520  0.1387E+02  0.3225E+02
    -18.389  0.1144E+02  0.3375E+02
    -18.257  0.8551E+01  0.3488E+02
    -18.125  0.4972E+01  0.3554E+02
    -17.993  0.1518E+02  0.3753E+02
    -17.862  0.4857E+01  0.3817E+02
    -17.730  0.3670E+01  0.3866E+02
    -17.598  0.5944E+01  0.3944E+02
    -17.467  0.1578E+02  0.4152E+02
    -17.335  0.4209E+01  0.4207E+02
    -17.203  0.2126E+02  0.4487E+02
    -17.072  0.6774E+01  0.4576E+02
    -16.940  0.3505E+01  0.4623E+02
    -16.808  0.9000E+01  0.4741E+02
    -16.677  0.3884E+01  0.4792E+02
    -16.545  0.9064E+01  0.4912E+02
    -16.413  0.8783E+01  0.5027E+02
    -16.282  0.3040E+01  0.5067E+02
    -16.150  0.9368E+01  0.5191E+02
    -16.018  0.5936E+01  0.5269E+02
    -15.887  0.1297E+02  0.5440E+02
    -15.755  0.1191E+02  0.5596E+02
    -15.623  0.2153E+01  0.5625E+02
    -15.492  0.4231E+01  0.5680E+02
    -15.360  0.2725E+01  0.5716E+02
    -15.228  0.1026E+02  0.5851E+02
    -15.097  0.2199E+02  0.6141E+02
    -14.965  0.4780E+01  0.6204E+02
    -14.833  0.1153E+02  0.6356E+02
    -14.702  0.1033E+02  0.6492E+02
    -14.570  0.6388E+01  0.6576E+02
    -14.438  0.1584E+02  0.6784E+02
    -14.307  0.4561E+01  0.6844E+02
    -14.175  0.1185E+01  0.6860E+02
    -14.043  0.3936E+01  0.6912E+02
    -13.912  0.1023E+02  0.7047E+02
    -13.780  0.1699E+02  0.7270E+02
    -13.648  0.1752E+02  0.7501E+02
    -13.517  0.1669E+01  0.7523E+02
    -13.385  0.2464E+01  0.7556E+02
    -13.253  0.5578E+00  0.7563E+02
    -13.121  0.1130E+02  0.7712E+02
    -12.990  0.1391E+02  0.7895E+02
    -12.858  0.2036E+02  0.8163E+02
    -12.726  0.1129E+01  0.8178E+02
    -12.595  0.5054E+01  0.8244E+02
    -12.463  0.1741E+02  0.8474E+02
    -12.331  0.1082E+02  0.8616E+02
    -12.200  0.3640E+01  0.8664E+02
    -12.068  0.3151E+01  0.8705E+02
    -11.936  0.1216E+02  0.8866E+02
    -11.805  0.3742E+01  0.8915E+02
    -11.673  0.1627E+02  0.9129E+02
    -11.541  0.1760E+02  0.9361E+02
    -11.410  0.1332E+02  0.9536E+02
    -11.278  0.8446E+01  0.9647E+02
    -11.146  0.5500E+01  0.9720E+02
    -11.015  0.7817E+01  0.9823E+02
    -10.883  0.1312E+02  0.9995E+02
    -10.751  0.1679E+02  0.1022E+03
    -10.620  0.2077E+01  0.1024E+03
    -10.488  0.2063E+02  0.1052E+03
    -10.356  0.3781E+01  0.1057E+03
    -10.225  0.2472E+02  0.1089E+03
    -10.093  0.2533E+02  0.1122E+03
     -9.961  0.1832E+02  0.1147E+03
     -9.830  0.1521E+02  0.1167E+03
     -9.698  0.1709E+02  0.1189E+03
     -9.566  0.2780E+02  0.1226E+03
     -9.435  0.2067E+02  0.1253E+03
     -9.303  0.2738E+02  0.1289E+03
     -9.171  0.2339E+02  0.1320E+03
     -9.040  0.2898E+02  0.1358E+03
     -8.908  0.1981E+02  0.1384E+03
     -8.776  0.1755E+02  0.1407E+03
     -8.644  0.2354E+02  0.1438E+03
     -8.513  0.1742E+02  0.1461E+03
     -8.381  0.1623E+02  0.1482E+03
     -8.249  0.1554E+02  0.1503E+03
     -8.118  0.1598E+02  0.1524E+03
     -7.986  0.2874E+02  0.1562E+03
     -7.854  0.1604E+02  0.1583E+03
     -7.723  0.1628E+02  0.1604E+03
     -7.591  0.8257E+01  0.1615E+03
     -7.459  0.1993E+01  0.1618E+03
     -7.328  0.1808E+02  0.1642E+03
     -7.196  0.3213E+02  0.1684E+03
     -7.064  0.1544E+02  0.1704E+03
     -6.933  0.4598E+01  0.1710E+03
     -6.801  0.1911E+02  0.1735E+03
     -6.669  0.1285E+02  0.1752E+03
     -6.538  0.1595E+02  0.1773E+03
     -6.406  0.7028E+01  0.1783E+03
     -6.274  0.1250E+02  0.1799E+03
     -6.143  0.1537E+02  0.1819E+03
     -6.011  0.1367E+02  0.1837E+03
     -5.879  0.2031E+02  0.1864E+03
     -5.748  0.7676E+01  0.1874E+03
     -5.616  0.1373E+02  0.1892E+03
     -5.484  0.3250E+01  0.1897E+03
     -5.353  0.7815E+01  0.1907E+03
     -5.221  0.8739E+01  0.1918E+03
     -5.089  0.1170E+02  0.1934E+03
     -4.958  0.1848E+02  0.1958E+03
     -4.826  0.1504E+02  0.1978E+03
     -4.694  0.3196E+01  0.1982E+03
     -4.563  0.9358E-01  0.1982E+03
     -4.431  0.3592E-04  0.1982E+03
     -4.299  0.2964E+01  0.1986E+03
     -4.167  0.1703E+02  0.2009E+03
     -4.036  0.5321E+01  0.2016E+03
     -3.904  0.1259E-02  0.2016E+03
     -3.772  0.3709E+00  0.2016E+03
     -3.641  0.2983E+01  0.2020E+03
     -3.509  0.2892E+00  0.2020E+03
     -3.377  0.4268E+01  0.2026E+03
     -3.246  0.1230E+02  0.2042E+03
     -3.114  0.1082E+02  0.2056E+03
     -2.982  0.2771E+01  0.2060E+03
     -2.851  0.2543E+01  0.2063E+03
     -2.719  0.9135E+01  0.2075E+03
     -2.587  0.8155E-01  0.2076E+03
     -2.456  0.9517E-01  0.2076E+03
     -2.324  0.3171E+01  0.2080E+03
     -2.192  0.2859E+01  0.2084E+03
     -2.061  0.6254E+00  0.2084E+03
     -1.929  0.6485E-05  0.2084E+03
     -1.797  0.4086E-07  0.2084E+03
     -1.666  0.2037E+00  0.2085E+03
     -1.534  0.9537E+01  0.2097E+03
     -1.402  0.1249E+02  0.2114E+03
     -1.271  0.3081E+01  0.2118E+03
     -1.139  0.1320E-03  0.2118E+03
     -1.007  0.1140E+01  0.2119E+03
     -0.876  0.1102E+02  0.2134E+03
     -0.744  0.2306E+02  0.2164E+03
     -0.612  0.1825E+02  0.2188E+03
     -0.481  0.5335E+01  0.2195E+03
     -0.349  0.2762E+00  0.2196E+03
     -0.217  0.4630E+01  0.2202E+03
     -0.086  0.1121E+02  0.2216E+03
      0.046  0.1045E+02  0.2230E+03
      0.178  0.8376E+00  0.2231E+03
      0.310  0.1592E+02  0.2252E+03
      0.441  0.7897E+01  0.2263E+03
      0.573  0.3141E+01  0.2267E+03
      0.705  0.1111E+02  0.2281E+03
      0.836  0.1671E+02  0.2303E+03
      0.968  0.6369E+01  0.2312E+03
      1.100  0.1086E+02  0.2326E+03
      1.231  0.1505E+02  0.2346E+03
      1.363  0.8302E+01  0.2357E+03
      1.495  0.1498E+02  0.2377E+03
      1.626  0.2295E+02  0.2407E+03
      1.758  0.1552E+02  0.2427E+03
      1.890  0.2755E+02  0.2464E+03
      2.021  0.8362E+01  0.2475E+03
      2.153  0.1616E+02  0.2496E+03
      2.285  0.2602E+02  0.2530E+03
      2.416  0.2876E+02  0.2568E+03
      2.548  0.7588E+01  0.2578E+03
      2.680  0.6187E+01  0.2586E+03
      2.811  0.9103E+01  0.2598E+03
      2.943  0.5135E+01  0.2605E+03
      3.075  0.9185E+01  0.2617E+03
      3.206  0.2717E+01  0.2621E+03
      3.338  0.4633E+01  0.2627E+03
      3.470  0.3082E-01  0.2627E+03
      3.601  0.3135E+01  0.2631E+03
      3.733  0.3613E+01  0.2636E+03
      3.865  0.1489E-02  0.2636E+03
      3.996  0.6414E-06  0.2636E+03
      4.128  0.2964E+00  0.2636E+03
      4.260  0.3049E+01  0.2640E+03
      4.391  0.3002E-01  0.2640E+03
      4.523  0.1854E-08  0.2640E+03
      4.655  0.0000E+00  0.2640E+03
      4.787  0.0000E+00  0.2640E+03
      4.918  0.0000E+00  0.2640E+03
      5.050  0.0000E+00  0.2640E+03
      5.182  0.0000E+00  0.2640E+03
      5.313  0.0000E+00  0.2640E+03
      5.445  0.0000E+00  0.2640E+03
      5.577  0.0000E+00  0.2640E+03
      5.708  0.0000E+00  0.2640E+03
      5.840  0.0000E+00  0.2640E+03
      5.972  0.0000E+00  0.2640E+03
