<?xml version="1.0" encoding="ISO-8859-1"?>
<modeling>
 <generator>
  <i name="program" type="string">vasp </i>
  <i name="version" type="string">5.4.4.18Apr17-6-g9f103f2a35  </i>
  <i name="subversion" type="string">(build Aug 13 2022 23:40:43) complex            parallel </i>
  <i name="platform" type="string">LinuxIFC </i>
  <i name="date" type="string">2024 11 10 </i>
  <i name="time" type="string">03:56:10 </i>
 </generator>
 <incar>
  <i type="int" name="ISTART">     1</i>
  <i type="string" name="PREC">accurate</i>
  <i type="string" name="ALGO"> F          N:DAV,fine,slow</i>
  <i type="logical" name="ADDGRID"> T  </i>
  <i type="int" name="ISPIN">     1</i>
  <i type="int" name="ICHARG">     1</i>
  <i type="int" name="NELM">   300</i>
  <i type="int" name="IBRION">    -1</i>
  <i name="EDIFF">      0.00001000</i>
  <i name="EDIFFG">     -0.00100000</i>
  <i type="int" name="NSW">     1</i>
  <i type="int" name="ISIF">     2</i>
  <i name="ENCUT">    400.00000000</i>
  <i type="logical" name="LREAL"> F  </i>
  <i type="int" name="ISMEAR">     0</i>
  <i name="SIGMA">      0.05000000</i>
  <i type="logical" name="LWAVE"> F  </i>
  <i type="logical" name="LCHARG"> F  </i>
  <v type="int" name="KPOINT_BSE">    -1     0     0     0</v>
  <i type="int" name="NELM">   300</i>
 </incar>
 <structure name="primitive_cell" >
  <crystal>
   <varray name="basis" >
    <v>      12.30000019       0.00000000       0.00000000 </v>
    <v>       6.15000080      10.65211222       0.00000000 </v>
    <v>       0.00000000       0.00000000      20.00000000 </v>
   </varray>
   <i name="volume">   2620.41964732 </i>
   <varray name="rec_basis" >
    <v>       0.08130081      -0.04693905       0.00000000 </v>
    <v>       0.00000000       0.09387809       0.00000000 </v>
    <v>       0.00000000       0.00000000       0.05000000 </v>
   </varray>
  </crystal>
  <varray name="positions" >
   <v>       0.00000000       0.00000000       0.41799748 </v>
   <v>       0.06666667       0.06666660       0.41800609 </v>
   <v>      -0.13333333       0.06666660       0.41800609 </v>
   <v>       0.06666667      -0.13333340       0.41800609 </v>
   <v>      -0.20000000       0.20000000       0.41799748 </v>
   <v>       0.20000000      -0.20000000       0.41799748 </v>
   <v>       0.20000000       0.00000000       0.41799748 </v>
   <v>      -0.20000000       0.00000000       0.41799748 </v>
   <v>       0.00000000       0.20000000       0.41799748 </v>
   <v>       0.00000000      -0.20000000       0.41799748 </v>
   <v>      -0.13333333       0.26666660       0.41800609 </v>
   <v>       0.26666667      -0.13333340       0.41800609 </v>
   <v>      -0.13333333      -0.13333340       0.41800609 </v>
   <v>       0.06666667       0.26666660       0.41800609 </v>
   <v>      -0.33333333       0.26666660       0.41800609 </v>
   <v>       0.26666667       0.06666660       0.41800609 </v>
   <v>      -0.33333333       0.06666660       0.41800609 </v>
   <v>       0.26666667      -0.33333340       0.41800609 </v>
   <v>       0.06666667      -0.33333340       0.41800609 </v>
   <v>      -0.40000000       0.20000000       0.41799748 </v>
   <v>       0.40000000      -0.20000000       0.41799748 </v>
   <v>      -0.20000000       0.40000000       0.41799748 </v>
   <v>       0.20000000      -0.40000000       0.41799748 </v>
   <v>       0.20000000       0.20000000       0.41799748 </v>
   <v>      -0.20000000      -0.20000000       0.41799748 </v>
   <v>      -0.40000000       0.40000000       0.41799748 </v>
   <v>       0.40000000      -0.40000000       0.41799748 </v>
   <v>       0.40000000       0.00000000       0.41799748 </v>
   <v>      -0.40000000       0.00000000       0.41799748 </v>
   <v>       0.00000000       0.40000000       0.41799748 </v>
   <v>       0.00000000      -0.40000000       0.41799748 </v>
   <v>      -0.13333333       0.46666660       0.41800609 </v>
   <v>      -0.33333333       0.46666660       0.41800609 </v>
   <v>       0.46666667      -0.13333340       0.41800609 </v>
   <v>       0.46666667      -0.33333340       0.41800609 </v>
   <v>      -0.33333333      -0.13333340       0.41800609 </v>
   <v>      -0.13333333      -0.33333340       0.41800609 </v>
   <v>       0.26666667       0.26666660       0.41800609 </v>
   <v>       0.46666667       0.26666660       0.41800609 </v>
   <v>       0.26666667       0.46666660       0.41800609 </v>
   <v>       0.06666667       0.46666660       0.41800609 </v>
   <v>       0.46666667       0.46666660       0.41800609 </v>
   <v>       0.46666667       0.06666660       0.41800609 </v>
   <v>       0.40000000       0.20081301       0.41799748 </v>
   <v>       0.40000000       0.40000000       0.41799748 </v>
   <v>      -0.40000000      -0.40000000       0.41799748 </v>
   <v>      -0.40000000      -0.20000000       0.41799748 </v>
   <v>       0.20000000       0.40000000       0.41799748 </v>
   <v>      -0.20000000      -0.40000000       0.41799748 </v>
   <v>       0.40000000       0.40000000       0.46800609 </v>
   <v>      -0.33333333      -0.33333340       0.41800609 </v>
  </varray>
 </structure>
 <varray name="primitive_index" >
  <v type="int" >        1 </v>
  <v type="int" >       26 </v>
  <v type="int" >       30 </v>
  <v type="int" >       46 </v>
  <v type="int" >       10 </v>
  <v type="int" >       22 </v>
  <v type="int" >        2 </v>
  <v type="int" >        5 </v>
  <v type="int" >        6 </v>
  <v type="int" >       21 </v>
  <v type="int" >       35 </v>
  <v type="int" >       47 </v>
  <v type="int" >       50 </v>
  <v type="int" >       31 </v>
  <v type="int" >       34 </v>
  <v type="int" >       27 </v>
  <v type="int" >       29 </v>
  <v type="int" >       42 </v>
  <v type="int" >       41 </v>
  <v type="int" >        9 </v>
  <v type="int" >       23 </v>
  <v type="int" >       15 </v>
  <v type="int" >       17 </v>
  <v type="int" >        7 </v>
  <v type="int" >       25 </v>
  <v type="int" >       14 </v>
  <v type="int" >       18 </v>
  <v type="int" >        3 </v>
  <v type="int" >        4 </v>
  <v type="int" >       11 </v>
  <v type="int" >       16 </v>
  <v type="int" >       40 </v>
  <v type="int" >       39 </v>
  <v type="int" >       48 </v>
  <v type="int" >       43 </v>
  <v type="int" >       49 </v>
  <v type="int" >       45 </v>
  <v type="int" >       32 </v>
  <v type="int" >       33 </v>
  <v type="int" >       37 </v>
  <v type="int" >       36 </v>
  <v type="int" >       38 </v>
  <v type="int" >       28 </v>
  <v type="int" >        8 </v>
  <v type="int" >       13 </v>
  <v type="int" >       19 </v>
  <v type="int" >       24 </v>
  <v type="int" >       12 </v>
  <v type="int" >       20 </v>
  <v type="int" >       51 </v>
  <v type="int" >       44 </v>
 </varray>
 <kpoints>
  <generation param="Gamma">
   <v type="int" name="divisions">       3        3        1 </v>
   <v name="usershift">      0.00000000       0.00000000       0.00000000 </v>
   <v name="genvec1">      0.33333333      -0.00000000       0.00000000 </v>
   <v name="genvec2">      0.00000000       0.33333333       0.00000000 </v>
   <v name="genvec3">      0.00000000       0.00000000       1.00000000 </v>
   <v name="shift">      0.00000000       0.00000000       0.00000000 </v>
  </generation>
  <varray name="kpointlist" >
   <v>       0.00000000       0.00000000       0.00000000 </v>
   <v>       0.33333333       0.00000000       0.00000000 </v>
   <v>       0.00000000       0.33333333       0.00000000 </v>
   <v>       0.33333333       0.33333333       0.00000000 </v>
   <v>      -0.33333333       0.33333333       0.00000000 </v>
  </varray>
  <varray name="weights" >
   <v>       0.11111111 </v>
   <v>       0.22222222 </v>
   <v>       0.22222222 </v>
   <v>       0.22222222 </v>
   <v>       0.22222222 </v>
  </varray>
 </kpoints>
 <parameters>
  <separator name="general" >
   <i type="string" name="SYSTEM"></i>
   <i type="logical" name="LCOMPAT"> F  </i>
  </separator>
  <separator name="electronic" >
   <i type="string" name="PREC">accura</i>
   <i name="ENMAX">    400.00000000</i>
   <i name="ENAUG">    644.87300000</i>
   <i name="EDIFF">      0.00001000</i>
   <i type="int" name="IALGO">    68</i>
   <i type="int" name="IWAVPR">    10</i>
   <i type="int" name="NBANDS">   132</i>
   <i name="NELECT">    206.00000000</i>
   <i type="int" name="TURBO">     0</i>
   <i type="int" name="IRESTART">     0</i>
   <i type="int" name="NREBOOT">     0</i>
   <i type="int" name="NMIN">     0</i>
   <i name="EREF">      0.00000000</i>
   <separator name="electronic smearing" >
    <i type="int" name="ISMEAR">     0</i>
    <i name="SIGMA">      0.05000000</i>
    <i name="KSPACING">      0.50000000</i>
    <i type="logical" name="KGAMMA"> T  </i>
   </separator>
   <separator name="electronic projectors" >
    <i type="logical" name="LREAL"> F  </i>
    <v name="ROPT">      0.00000000      0.00000000</v>
    <i type="int" name="LMAXPAW">  -100</i>
    <i type="int" name="LMAXMIX">     2</i>
    <i type="logical" name="NLSPLINE"> F  </i>
   </separator>
   <separator name="electronic startup" >
    <i type="int" name="ISTART">     1</i>
    <i type="int" name="ICHARG">     1</i>
    <i type="int" name="INIWAV">     1</i>
   </separator>
   <separator name="electronic spin" >
    <i type="int" name="ISPIN">     1</i>
    <i type="logical" name="LNONCOLLINEAR"> F  </i>
    <v name="MAGMOM">      1.00000000      1.00000000      1.00000000      1.00000000      1.00000000      1.00000000      1.00000000      1.00000000      1.00000000      1.00000000      1.00000000      1.00000000      1.00000000      1.00000000      1.00000000      1.00000000      1.00000000      1.00000000      1.00000000      1.00000000
      1.00000000      1.00000000      1.00000000      1.00000000      1.00000000      1.00000000      1.00000000      1.00000000      1.00000000      1.00000000      1.00000000      1.00000000      1.00000000      1.00000000      1.00000000      1.00000000      1.00000000      1.00000000      1.00000000      1.00000000
      1.00000000      1.00000000      1.00000000      1.00000000      1.00000000      1.00000000      1.00000000      1.00000000      1.00000000      1.00000000      1.00000000</v>
    <i name="NUPDOWN">     -1.00000000</i>
    <i type="logical" name="LSORBIT"> F  </i>
    <v name="SAXIS">      0.00000000      0.00000000      1.00000000</v>
    <i type="logical" name="LSPIRAL"> F  </i>
    <v name="QSPIRAL">      0.00000000      0.00000000      0.00000000</v>
    <i type="logical" name="LZEROZ"> F  </i>
   </separator>
   <separator name="electronic exchange-correlation" >
    <i type="logical" name="LASPH"> F  </i>
    <i type="logical" name="LMETAGGA"> F  </i>
   </separator>
   <separator name="electronic convergence" >
    <i type="int" name="NELM">   300</i>
    <i type="int" name="NELMDL">     0</i>
    <i type="int" name="NELMIN">     2</i>
    <i name="ENINI">    400.00000000</i>
    <separator name="electronic convergence detail" >
     <i type="logical" name="LDIAG"> T  </i>
     <i type="logical" name="LSUBROT"> F  </i>
     <i name="WEIMIN">      0.00000000</i>
     <i name="EBREAK">      0.00000002</i>
     <i name="DEPER">      0.30000000</i>
     <i type="int" name="NRMM">     4</i>
     <i name="TIME">      0.40000000</i>
    </separator>
   </separator>
   <separator name="electronic mixer" >
    <i name="AMIX">      0.40000000</i>
    <i name="BMIX">      1.00000000</i>
    <i name="AMIN">      0.10000000</i>
    <i name="AMIX_MAG">      1.60000000</i>
    <i name="BMIX_MAG">      1.00000000</i>
    <separator name="electronic mixer details" >
     <i type="int" name="IMIX">     4</i>
     <i type="logical" name="MIXFIRST"> F  </i>
     <i type="int" name="MAXMIX">   -45</i>
     <i name="WC">    100.00000000</i>
     <i type="int" name="INIMIX">     1</i>
     <i type="int" name="MIXPRE">     1</i>
     <i type="int" name="MREMOVE">     5</i>
    </separator>
   </separator>
   <separator name="electronic dipolcorrection" >
    <i type="logical" name="LDIPOL"> F  </i>
    <i type="logical" name="LMONO"> F  </i>
    <i type="int" name="IDIPOL">     0</i>
    <i name="EPSILON">      1.00000000</i>
    <v name="DIPOL">   -100.00000000   -100.00000000   -100.00000000</v>
    <i name="EFIELD">      0.00000000</i>
   </separator>
  </separator>
  <separator name="grids" >
   <i type="int" name="NGX">    80</i>
   <i type="int" name="NGY">    80</i>
   <i type="int" name="NGZ">   140</i>
   <i type="int" name="NGXF">   160</i>
   <i type="int" name="NGYF">   160</i>
   <i type="int" name="NGZF">   280</i>
   <i type="logical" name="ADDGRID"> T  </i>
  </separator>
  <separator name="ionic" >
   <i type="int" name="NSW">     1</i>
   <i type="int" name="IBRION">    -1</i>
   <i type="int" name="MDALGO">     0</i>
   <i type="int" name="ISIF">     2</i>
   <i name="PSTRESS">      0.00000000</i>
   <i name="EDIFFG">     -0.00100000</i>
   <i type="int" name="NFREE">     0</i>
   <i name="POTIM">      0.50000000</i>
   <i name="SMASS">     -3.00000000</i>
   <i name="SCALEE">      1.00000000</i>
  </separator>
  <separator name="ionic md" >
   <i name="TEBEG">      0.00010000</i>
   <i name="TEEND">      0.00010000</i>
   <i type="int" name="NBLOCK">     1</i>
   <i type="int" name="KBLOCK">     1</i>
   <i type="int" name="NPACO">   256</i>
   <i name="APACO">     16.00000000</i>
  </separator>
  <separator name="symmetry" >
   <i type="int" name="ISYM">     2</i>
   <i name="SYMPREC">      0.00001000</i>
  </separator>
  <separator name="dos" >
   <i type="int" name="LORBIT">     0</i>
   <v name="RWIGS">     -1.00000000     -1.00000000</v>
   <i type="int" name="NEDOS">   301</i>
   <i name="EMIN">     10.00000000</i>
   <i name="EMAX">    -10.00000000</i>
   <i name="EFERMI">      0.00000000</i>
  </separator>
  <separator name="writing" >
   <i type="int" name="NWRITE">     2</i>
   <i type="logical" name="LWAVE"> F  </i>
   <i type="logical" name="LDOWNSAMPLE"> F  </i>
   <i type="logical" name="LCHARG"> F  </i>
   <i type="logical" name="LPARD"> F  </i>
   <i type="logical" name="LVTOT"> F  </i>
   <i type="logical" name="LVHAR"> F  </i>
   <i type="logical" name="LELF"> F  </i>
   <i type="logical" name="LOPTICS"> F  </i>
   <v name="STM">      0.00000000      0.00000000      0.00000000      0.00000000      0.00000000      0.00000000      0.00000000</v>
  </separator>
  <separator name="performance" >
   <i type="int" name="NPAR">     6</i>
   <i type="int" name="NSIM">     4</i>
   <i type="int" name="NBLK">    -1</i>
   <i type="logical" name="LPLANE"> T  </i>
   <i type="logical" name="LSCALAPACK"> T  </i>
   <i type="logical" name="LSCAAWARE"> F  </i>
   <i type="logical" name="LSCALU"> F  </i>
   <i type="logical" name="LASYNC"> F  </i>
   <i type="logical" name="LORBITALREAL"> F  </i>
  </separator>
  <separator name="miscellaneous" >
   <i type="int" name="IDIOT">     3</i>
   <i type="int" name="ISPECIAL">     0</i>
   <i type="logical" name="LMUSIC"> F  </i>
   <v name="POMASS">     12.01100000     16.00000000</v>
   <v name="DARWINR">      0.00000000      0.00000000</v>
   <v name="DARWINV">      1.00000000      1.00000000</v>
   <i type="logical" name="LCORR"> T  </i>
  </separator>
  <i type="logical" name="GGA_COMPAT"> T  </i>
  <i type="logical" name="LBERRY"> F  </i>
  <i type="int" name="ICORELEVEL">     0</i>
  <i type="logical" name="LDAU"> F  </i>
  <i type="int" name="I_CONSTRAINED_M">     0</i>
  <separator name="electronic exchange-correlation" >
   <i type="string" name="GGA">--</i>
   <i type="int" name="VOSKOWN">     0</i>
   <i type="logical" name="LHFCALC"> F  </i>
   <i type="string" name="PRECFOCK"></i>
   <i type="logical" name="LSYMGRAD"> F  </i>
   <i type="logical" name="LHFONE"> F  </i>
   <i type="logical" name="LRHFCALC"> F  </i>
   <i type="logical" name="LTHOMAS"> F  </i>
   <i type="logical" name="LMODELHF"> F  </i>
   <i name="ENCUT4O">     -1.00000000</i>
   <i type="int" name="EXXOEP">     0</i>
   <i type="int" name="FOURORBIT">     0</i>
   <i name="AEXX">      0.00000000</i>
   <i name="HFALPHA">      0.00000000</i>
   <i name="MCALPHA">      0.00000000</i>
   <i name="ALDAX">      1.00000000</i>
   <i name="AGGAX">      1.00000000</i>
   <i name="ALDAC">      1.00000000</i>
   <i name="AGGAC">      1.00000000</i>
   <i type="int" name="NKREDX">     1</i>
   <i type="int" name="NKREDY">     1</i>
   <i type="int" name="NKREDZ">     1</i>
   <i type="logical" name="SHIFTRED"> F  </i>
   <i type="logical" name="ODDONLY"> F  </i>
   <i type="logical" name="EVENONLY"> F  </i>
   <i type="int" name="LMAXFOCK">     0</i>
   <i type="int" name="NMAXFOCKAE">     0</i>
   <i type="logical" name="LFOCKAEDFT"> F  </i>
   <i name="HFSCREEN">      0.00000000</i>
   <i name="HFSCREENC">      0.00000000</i>
   <i type="int" name="NBANDSGWLOW">     0</i>
  </separator>
  <separator name="vdW DFT" >
   <i type="logical" name="LUSE_VDW"> F  </i>
   <i name="Zab_VDW">     -0.84910000</i>
   <i name="PARAM1">      0.12340000</i>
   <i name="PARAM2">      1.00000000</i>
   <i name="PARAM3">      0.00000000</i>
  </separator>
  <separator name="model GW" >
   <i type="int" name="MODEL_GW">     0</i>
   <i name="MODEL_EPS0">     30.82846644</i>
   <i name="MODEL_ALPHA">      1.00000000</i>
  </separator>
  <separator name="linear response parameters" >
   <i type="logical" name="LEPSILON"> F  </i>
   <i type="logical" name="LRPA"> F  </i>
   <i type="logical" name="LNABLA"> F  </i>
   <i type="logical" name="LVEL"> F  </i>
   <i type="int" name="KINTER">     0</i>
   <i name="CSHIFT">      0.10000000</i>
   <i name="OMEGAMAX">     -1.00000000</i>
   <i name="DEG_THRESHOLD">      0.00200000</i>
   <i name="RTIME">     -0.10000000</i>
   <i name="WPLASMAI">      0.00000000</i>
   <v name="DFIELD">      0.00000000      0.00000000      0.00000000</v>
   <v name="WPLASMA">      0.00000000      0.00000000      0.00000000      0.00000000      0.00000000      0.00000000      0.00000000      0.00000000      0.00000000</v>
  </separator>
  <separator name="orbital magnetization" >
   <i type="logical" name="NUCIND"> F  </i>
   <v name="MAGPOS">      0.00000000      0.00000000      0.00000000</v>
   <i type="logical" name="LNICSALL"> T  </i>
   <i type="logical" name="ORBITALMAG"> F  </i>
   <i type="logical" name="LMAGBLOCH"> F  </i>
   <i type="logical" name="LCHIMAG"> F  </i>
   <i type="logical" name="LGAUGE"> T  </i>
   <i type="int" name="MAGATOM">     0</i>
   <v name="MAGDIPOL">      0.00000000      0.00000000      0.00000000</v>
   <v name="AVECCONST">      0.00000000      0.00000000      0.00000000</v>
  </separator>
  <separator name="response functions" >
   <i type="logical" name="LADDER"> F  </i>
   <i type="logical" name="LRPAFORCE"> F  </i>
   <i type="logical" name="LFXC"> F  </i>
   <i type="logical" name="LHARTREE"> T  </i>
   <i type="int" name="IBSE">     0</i>
   <v type="int" name="KPOINT">    -1     0     0     0</v>
   <i type="logical" name="LTCTE"> F  </i>
   <i type="logical" name="LTETE"> F  </i>
   <i type="logical" name="LTRIPLET"> F  </i>
   <i type="logical" name="LFXCEPS"> F  </i>
   <i type="logical" name="LFXHEG"> F  </i>
   <i type="int" name="NATURALO">     2</i>
   <i type="logical" name="L2ORDER"> F  </i>
   <i type="logical" name="LMP2LT"> F  </i>
   <i type="logical" name="LUSEW"> F  </i>
   <i name="ENCUTGW">     -2.00000000</i>
   <i name="ENCUTGWSOFT">     -2.00000000</i>
   <i name="ENCUTLF">     -1.00000000</i>
   <i type="int" name="LMAXMP2">    -1</i>
   <i name="SCISSOR">      0.00000000</i>
   <i type="int" name="NOMEGA">     0</i>
   <i type="int" name="NOMEGAR">     0</i>
   <i type="int" name="NBANDSGW">    -1</i>
   <i type="int" name="NBANDSO">    -1</i>
   <i type="int" name="NBANDSV">    -1</i>
   <i type="int" name="NELM">   300</i>
   <i type="int" name="NELMHF">     1</i>
   <i type="int" name="DIM">     3</i>
   <i type="int" name="ANTIRES">     0</i>
   <i name="OMEGAMAX">    -30.00000000</i>
   <i name="OMEGAMIN">    -30.00000000</i>
   <i name="OMEGATL">   -200.00000000</i>
   <i type="int" name="OMEGAGRID">   140</i>
   <i name="CSHIFT">     -0.10000000</i>
   <i type="logical" name="SELFENERGY"> F  </i>
   <i type="logical" name="LSPECTRAL"> F  </i>
   <i type="logical" name="LSPECTRALGW"> F  </i>
   <i type="logical" name="LSINGLES"> F  </i>
   <i type="logical" name="LFERMIGW"> F  </i>
   <i type="logical" name="ODDONLYGW"> F  </i>
   <i type="logical" name="EVENONLYGW"> F  </i>
   <i type="int" name="NKREDLFX">     1</i>
   <i type="int" name="NKREDLFY">     1</i>
   <i type="int" name="NKREDLFZ">     1</i>
   <i type="int" name="MAXMEM">  2800</i>
   <i type="int" name="TELESCOPE">     0</i>
   <i type="int" name="TAUPAR">     1</i>
   <i type="int" name="OMEGAPAR">    -1</i>
   <i name="LAMBDA">      1.00000000</i>
  </separator>
  <separator name="External order field" >
   <i name="OFIELD_KAPPA">      0.00000000</i>
   <v name="OFIELD_K">      0.00000000      0.00000000      0.00000000</v>
   <i name="OFIELD_Q6_NEAR">      0.00000000</i>
   <i name="OFIELD_Q6_FAR">      0.00000000</i>
   <i name="OFIELD_A">      0.00000000</i>
  </separator>
 </parameters>
 <atominfo>
  <atoms>      51 </atoms>
  <types>       2 </types>
  <array name="atoms" >
   <dimension dim="1">ion</dimension>
   <field type="string">element</field>
   <field type="int">atomtype</field>
   <set>
    <rc><c>C </c><c>   1</c></rc>
    <rc><c>C </c><c>   1</c></rc>
    <rc><c>C </c><c>   1</c></rc>
    <rc><c>C </c><c>   1</c></rc>
    <rc><c>C </c><c>   1</c></rc>
    <rc><c>C </c><c>   1</c></rc>
    <rc><c>C </c><c>   1</c></rc>
    <rc><c>C </c><c>   1</c></rc>
    <rc><c>C </c><c>   1</c></rc>
    <rc><c>C </c><c>   1</c></rc>
    <rc><c>C </c><c>   1</c></rc>
    <rc><c>C </c><c>   1</c></rc>
    <rc><c>C </c><c>   1</c></rc>
    <rc><c>C </c><c>   1</c></rc>
    <rc><c>C </c><c>   1</c></rc>
    <rc><c>C </c><c>   1</c></rc>
    <rc><c>C </c><c>   1</c></rc>
    <rc><c>C </c><c>   1</c></rc>
    <rc><c>C </c><c>   1</c></rc>
    <rc><c>C </c><c>   1</c></rc>
    <rc><c>C </c><c>   1</c></rc>
    <rc><c>C </c><c>   1</c></rc>
    <rc><c>C </c><c>   1</c></rc>
    <rc><c>C </c><c>   1</c></rc>
    <rc><c>C </c><c>   1</c></rc>
    <rc><c>C </c><c>   1</c></rc>
    <rc><c>C </c><c>   1</c></rc>
    <rc><c>C </c><c>   1</c></rc>
    <rc><c>C </c><c>   1</c></rc>
    <rc><c>C </c><c>   1</c></rc>
    <rc><c>C </c><c>   1</c></rc>
    <rc><c>C </c><c>   1</c></rc>
    <rc><c>C </c><c>   1</c></rc>
    <rc><c>C </c><c>   1</c></rc>
    <rc><c>C </c><c>   1</c></rc>
    <rc><c>C </c><c>   1</c></rc>
    <rc><c>C </c><c>   1</c></rc>
    <rc><c>C </c><c>   1</c></rc>
    <rc><c>C </c><c>   1</c></rc>
    <rc><c>C </c><c>   1</c></rc>
    <rc><c>C </c><c>   1</c></rc>
    <rc><c>C </c><c>   1</c></rc>
    <rc><c>C </c><c>   1</c></rc>
    <rc><c>C </c><c>   1</c></rc>
    <rc><c>C </c><c>   1</c></rc>
    <rc><c>C </c><c>   1</c></rc>
    <rc><c>C </c><c>   1</c></rc>
    <rc><c>C </c><c>   1</c></rc>
    <rc><c>C </c><c>   1</c></rc>
    <rc><c>C </c><c>   1</c></rc>
    <rc><c>O </c><c>   2</c></rc>
   </set>
  </array>
  <array name="atomtypes" >
   <dimension dim="1">type</dimension>
   <field type="int">atomspertype</field>
   <field type="string">element</field>
   <field>mass</field>
   <field>valence</field>
   <field type="string">pseudopotential</field>
   <set>
    <rc><c>  50</c><c>C </c><c>     12.01100000</c><c>      4.00000000</c><c>  PAW_PBE C 08Apr2002                   </c></rc>
    <rc><c>   1</c><c>O </c><c>     16.00000000</c><c>      6.00000000</c><c>  PAW_PBE O 08Apr2002                   </c></rc>
   </set>
  </array>
 </atominfo>
 <structure name="initialpos" >
  <crystal>
   <varray name="basis" >
    <v>      12.30000019       0.00000000       0.00000000 </v>
    <v>       6.15000080      10.65211222       0.00000000 </v>
    <v>       0.00000000       0.00000000      20.00000000 </v>
   </varray>
   <i name="volume">   2620.41964732 </i>
   <varray name="rec_basis" >
    <v>       0.08130081      -0.04693905       0.00000000 </v>
    <v>       0.00000000       0.09387809       0.00000000 </v>
    <v>       0.00000000       0.00000000       0.05000000 </v>
   </varray>
  </crystal>
  <varray name="positions" >
   <v>       0.00000000       0.00000000       0.41799748 </v>
   <v>       0.20000000       0.00000000       0.41799748 </v>
   <v>       0.40000000       0.00000000       0.41799748 </v>
   <v>       0.60000000       0.00000000       0.41799748 </v>
   <v>       0.80000000       0.00000000       0.41799748 </v>
   <v>       0.00000000       0.20000000       0.41799748 </v>
   <v>       0.20000000       0.20000000       0.41799748 </v>
   <v>       0.40000000       0.20081301       0.41799748 </v>
   <v>       0.60000000       0.20000000       0.41799748 </v>
   <v>       0.80000000       0.20000000       0.41799748 </v>
   <v>       0.00000000       0.40000000       0.41799748 </v>
   <v>       0.20000000       0.40000000       0.41799748 </v>
   <v>       0.40000000       0.40000000       0.41799748 </v>
   <v>       0.60000000       0.40000000       0.41799748 </v>
   <v>       0.80000000       0.40000000       0.41799748 </v>
   <v>       0.00000000       0.60000000       0.41799748 </v>
   <v>       0.20000000       0.60000000       0.41799748 </v>
   <v>       0.40000000       0.60000000       0.41799748 </v>
   <v>       0.60000000       0.60000000       0.41799748 </v>
   <v>       0.80000000       0.60000000       0.41799748 </v>
   <v>       0.00000000       0.80000000       0.41799748 </v>
   <v>       0.20000000       0.80000000       0.41799748 </v>
   <v>       0.40000000       0.80000000       0.41799748 </v>
   <v>       0.60000000       0.80000000       0.41799748 </v>
   <v>       0.80000000       0.80000000       0.41799748 </v>
   <v>       0.06666667       0.06666660       0.41800609 </v>
   <v>       0.26666667       0.06666660       0.41800609 </v>
   <v>       0.46666667       0.06666660       0.41800609 </v>
   <v>       0.66666667       0.06666660       0.41800609 </v>
   <v>       0.86666667       0.06666660       0.41800609 </v>
   <v>       0.06666667       0.26666660       0.41800609 </v>
   <v>       0.26666667       0.26666660       0.41800609 </v>
   <v>       0.46666667       0.26666660       0.41800609 </v>
   <v>       0.66666667       0.26666660       0.41800609 </v>
   <v>       0.86666667       0.26666660       0.41800609 </v>
   <v>       0.06666667       0.46666660       0.41800609 </v>
   <v>       0.26666667       0.46666660       0.41800609 </v>
   <v>       0.46666667       0.46666660       0.41800609 </v>
   <v>       0.66666667       0.46666660       0.41800609 </v>
   <v>       0.86666667       0.46666660       0.41800609 </v>
   <v>       0.06666667       0.66666660       0.41800609 </v>
   <v>       0.26666667       0.66666660       0.41800609 </v>
   <v>       0.46666667       0.66666660       0.41800609 </v>
   <v>       0.66666667       0.66666660       0.41800609 </v>
   <v>       0.86666667       0.66666660       0.41800609 </v>
   <v>       0.06666667       0.86666660       0.41800609 </v>
   <v>       0.26666667       0.86666660       0.41800609 </v>
   <v>       0.46666667       0.86666660       0.41800609 </v>
   <v>       0.66666667       0.86666660       0.41800609 </v>
   <v>       0.86666667       0.86666660       0.41800609 </v>
   <v>       0.40000000       0.40000000       0.46800609 </v>
  </varray>
  <varray name="velocities" >
   <v>       0.00000000       0.00000000       0.00000000 </v>
   <v>       0.00000000       0.00000000       0.00000000 </v>
   <v>       0.00000000       0.00000000       0.00000000 </v>
   <v>       0.00000000       0.00000000       0.00000000 </v>
   <v>       0.00000000       0.00000000       0.00000000 </v>
   <v>       0.00000000       0.00000000       0.00000000 </v>
   <v>       0.00000000       0.00000000       0.00000000 </v>
   <v>       0.00000000       0.00000000       0.00000000 </v>
   <v>       0.00000000       0.00000000       0.00000000 </v>
   <v>       0.00000000       0.00000000       0.00000000 </v>
   <v>       0.00000000       0.00000000       0.00000000 </v>
   <v>       0.00000000       0.00000000       0.00000000 </v>
   <v>       0.00000000       0.00000000       0.00000000 </v>
   <v>       0.00000000       0.00000000       0.00000000 </v>
   <v>       0.00000000       0.00000000       0.00000000 </v>
   <v>       0.00000000       0.00000000       0.00000000 </v>
   <v>       0.00000000       0.00000000       0.00000000 </v>
   <v>       0.00000000       0.00000000       0.00000000 </v>
   <v>       0.00000000       0.00000000       0.00000000 </v>
   <v>       0.00000000       0.00000000       0.00000000 </v>
   <v>       0.00000000       0.00000000       0.00000000 </v>
   <v>       0.00000000       0.00000000       0.00000000 </v>
   <v>       0.00000000       0.00000000       0.00000000 </v>
   <v>       0.00000000       0.00000000       0.00000000 </v>
   <v>       0.00000000       0.00000000       0.00000000 </v>
   <v>       0.00000000       0.00000000       0.00000000 </v>
   <v>       0.00000000       0.00000000       0.00000000 </v>
   <v>       0.00000000       0.00000000       0.00000000 </v>
   <v>       0.00000000       0.00000000       0.00000000 </v>
   <v>       0.00000000       0.00000000       0.00000000 </v>
   <v>       0.00000000       0.00000000       0.00000000 </v>
   <v>       0.00000000       0.00000000       0.00000000 </v>
   <v>       0.00000000       0.00000000       0.00000000 </v>
   <v>       0.00000000       0.00000000       0.00000000 </v>
   <v>       0.00000000       0.00000000       0.00000000 </v>
   <v>       0.00000000       0.00000000       0.00000000 </v>
   <v>       0.00000000       0.00000000       0.00000000 </v>
   <v>       0.00000000       0.00000000       0.00000000 </v>
   <v>       0.00000000       0.00000000       0.00000000 </v>
   <v>       0.00000000       0.00000000       0.00000000 </v>
   <v>       0.00000000       0.00000000       0.00000000 </v>
   <v>       0.00000000       0.00000000       0.00000000 </v>
   <v>       0.00000000       0.00000000       0.00000000 </v>
   <v>       0.00000000       0.00000000       0.00000000 </v>
   <v>       0.00000000       0.00000000       0.00000000 </v>
   <v>       0.00000000       0.00000000       0.00000000 </v>
   <v>       0.00000000       0.00000000       0.00000000 </v>
   <v>       0.00000000       0.00000000       0.00000000 </v>
   <v>       0.00000000       0.00000000       0.00000000 </v>
   <v>       0.00000000       0.00000000       0.00000000 </v>
   <v>       0.00000000       0.00000000       0.00000000 </v>
  </varray>
 </structure>
 <calculation>
  <scstep>
   <time name="dav">    4.13    4.13</time>
   <time name="total">    4.71    4.72</time>
   <energy>
    <i name="alphaZ">     82.54348252 </i>
    <i name="ewald">  34516.98111170 </i>
    <i name="hartreedc"> -41035.27146780 </i>
    <i name="XCdc">    721.38064405 </i>
    <i name="pawpsdc">  22781.19595426 </i>
    <i name="pawaedc"> -22817.52509957 </i>
    <i name="eentropy">     -0.00051643 </i>
    <i name="bandstr">  -2491.22055882 </i>
    <i name="atom">   7788.62438962 </i>
    <i name="e_fr_energy">   -453.29206046 </i>
    <i name="e_wo_entrp">   -453.29154403 </i>
    <i name="e_0_energy">   -453.29180225 </i>
   </energy>
  </scstep>
  <scstep>
   <time name="diag">    0.89    0.89</time>
   <time name="diis">    3.74    3.75</time>
   <time name="orth">    0.04    0.04</time>
   <time name="total">    5.25    5.25</time>
   <energy>
    <i name="e_fr_energy">   -454.27979541 </i>
    <i name="e_wo_entrp">   -454.27968813 </i>
    <i name="e_0_energy">   -454.27974177 </i>
   </energy>
  </scstep>
  <scstep>
   <time name="diag">    0.89    0.89</time>
   <time name="diis">    4.17    4.17</time>
   <time name="orth">    0.04    0.04</time>
   <time name="total">    5.68    5.68</time>
   <energy>
    <i name="e_fr_energy">   -454.33217734 </i>
    <i name="e_wo_entrp">   -454.33204432 </i>
    <i name="e_0_energy">   -454.33211083 </i>
   </energy>
  </scstep>
  <scstep>
   <time name="diag">    0.88    0.88</time>
   <time name="diis">    4.12    4.12</time>
   <time name="orth">    0.04    0.04</time>
   <time name="total">    5.62    5.62</time>
   <energy>
    <i name="e_fr_energy">   -454.33603948 </i>
    <i name="e_wo_entrp">   -454.33592389 </i>
    <i name="e_0_energy">   -454.33598169 </i>
   </energy>
  </scstep>
  <scstep>
   <time name="diag">    0.88    0.88</time>
   <time name="diis">    3.97    3.97</time>
   <time name="orth">    0.04    0.04</time>
   <time name="total">    5.47    5.48</time>
   <energy>
    <i name="e_fr_energy">   -454.33615328 </i>
    <i name="e_wo_entrp">   -454.33603319 </i>
    <i name="e_0_energy">   -454.33609323 </i>
   </energy>
  </scstep>
  <scstep>
   <time name="diag">    0.88    0.88</time>
   <time name="diis">    4.10    4.10</time>
   <time name="orth">    0.04    0.04</time>
   <time name="total">    5.60    5.61</time>
   <energy>
    <i name="e_fr_energy">   -454.33618268 </i>
    <i name="e_wo_entrp">   -454.33606188 </i>
    <i name="e_0_energy">   -454.33612228 </i>
   </energy>
  </scstep>
  <scstep>
   <time name="diag">    0.90    0.90</time>
   <time name="diis">    2.88    2.88</time>
   <time name="orth">    0.04    0.04</time>
   <time name="total">    4.01    4.02</time>
   <energy>
    <i name="alphaZ">     82.54348252 </i>
    <i name="ewald">  34516.98111170 </i>
    <i name="hartreedc"> -41035.35683911 </i>
    <i name="XCdc">    721.38569628 </i>
    <i name="pawpsdc">  22777.64243809 </i>
    <i name="pawaedc"> -22813.97481922 </i>
    <i name="eentropy">     -0.00012181 </i>
    <i name="bandstr">  -2492.18152777 </i>
    <i name="atom">   7788.62438962 </i>
    <i name="e_fr_energy">   -454.33618970 </i>
    <i name="e_wo_entrp">   -454.33606788 </i>
    <i name="e_0_energy">   -454.33612879 </i>
   </energy>
  </scstep>
  <structure>
   <crystal>
    <varray name="basis" >
     <v>      12.30000019       0.00000000       0.00000000 </v>
     <v>       6.15000080      10.65211222       0.00000000 </v>
     <v>       0.00000000       0.00000000      20.00000000 </v>
    </varray>
    <i name="volume">   2620.41964732 </i>
    <varray name="rec_basis" >
     <v>       0.08130081      -0.04693905       0.00000000 </v>
     <v>       0.00000000       0.09387809       0.00000000 </v>
     <v>       0.00000000       0.00000000       0.05000000 </v>
    </varray>
   </crystal>
   <varray name="positions" >
    <v>       0.00000000       0.00000000       0.41799748 </v>
    <v>       0.20000000       0.00000000       0.41799748 </v>
    <v>       0.40000000       0.00000000       0.41799748 </v>
    <v>       0.60000000       0.00000000       0.41799748 </v>
    <v>       0.80000000       0.00000000       0.41799748 </v>
    <v>       0.00000000       0.20000000       0.41799748 </v>
    <v>       0.20000000       0.20000000       0.41799748 </v>
    <v>       0.40000000       0.20081301       0.41799748 </v>
    <v>       0.60000000       0.20000000       0.41799748 </v>
    <v>       0.80000000       0.20000000       0.41799748 </v>
    <v>       0.00000000       0.40000000       0.41799748 </v>
    <v>       0.20000000       0.40000000       0.41799748 </v>
    <v>       0.40000000       0.40000000       0.41799748 </v>
    <v>       0.60000000       0.40000000       0.41799748 </v>
    <v>       0.80000000       0.40000000       0.41799748 </v>
    <v>       0.00000000       0.60000000       0.41799748 </v>
    <v>       0.20000000       0.60000000       0.41799748 </v>
    <v>       0.40000000       0.60000000       0.41799748 </v>
    <v>       0.60000000       0.60000000       0.41799748 </v>
    <v>       0.80000000       0.60000000       0.41799748 </v>
    <v>       0.00000000       0.80000000       0.41799748 </v>
    <v>       0.20000000       0.80000000       0.41799748 </v>
    <v>       0.40000000       0.80000000       0.41799748 </v>
    <v>       0.60000000       0.80000000       0.41799748 </v>
    <v>       0.80000000       0.80000000       0.41799748 </v>
    <v>       0.06666667       0.06666660       0.41800609 </v>
    <v>       0.26666667       0.06666660       0.41800609 </v>
    <v>       0.46666667       0.06666660       0.41800609 </v>
    <v>       0.66666667       0.06666660       0.41800609 </v>
    <v>       0.86666667       0.06666660       0.41800609 </v>
    <v>       0.06666667       0.26666660       0.41800609 </v>
    <v>       0.26666667       0.26666660       0.41800609 </v>
    <v>       0.46666667       0.26666660       0.41800609 </v>
    <v>       0.66666667       0.26666660       0.41800609 </v>
    <v>       0.86666667       0.26666660       0.41800609 </v>
    <v>       0.06666667       0.46666660       0.41800609 </v>
    <v>       0.26666667       0.46666660       0.41800609 </v>
    <v>       0.46666667       0.46666660       0.41800609 </v>
    <v>       0.66666667       0.46666660       0.41800609 </v>
    <v>       0.86666667       0.46666660       0.41800609 </v>
    <v>       0.06666667       0.66666660       0.41800609 </v>
    <v>       0.26666667       0.66666660       0.41800609 </v>
    <v>       0.46666667       0.66666660       0.41800609 </v>
    <v>       0.66666667       0.66666660       0.41800609 </v>
    <v>       0.86666667       0.66666660       0.41800609 </v>
    <v>       0.06666667       0.86666660       0.41800609 </v>
    <v>       0.26666667       0.86666660       0.41800609 </v>
    <v>       0.46666667       0.86666660       0.41800609 </v>
    <v>       0.66666667       0.86666660       0.41800609 </v>
    <v>       0.86666667       0.86666660       0.41800609 </v>
    <v>       0.40000000       0.40000000       0.46800609 </v>
   </varray>
  </structure>
  <varray name="forces" >
   <v>      -0.04527244      -0.02775859       0.00932558 </v>
   <v>       0.05369320      -0.02353507       0.00939206 </v>
   <v>      -0.13169646       0.05238798      -0.02595385 </v>
   <v>      -0.03598691      -0.19311543      -0.02834973 </v>
   <v>       0.15805437       0.01706669      -0.02568410 </v>
   <v>      -0.00110315       0.05319469       0.00947255 </v>
   <v>       0.45382824       0.23022275      -0.00004862 </v>
   <v>      -0.20269500      -0.73984340       0.16116637 </v>
   <v>      -0.08075354      -0.22354395       0.16277358 </v>
   <v>      -0.42897768       0.24348438      -0.00017446 </v>
   <v>      -0.06942112      -0.14753925      -0.02634324 </v>
   <v>      -0.17280793       0.18828351       0.16723131 </v>
   <v>       0.02738084      -0.01536145     -48.14370520 </v>
   <v>       0.13157338       0.18354433       0.16499278 </v>
   <v>       0.06802666      -0.14482076      -0.02618940 </v>
   <v>      -0.18243510       0.10731662      -0.02726375 </v>
   <v>      -0.22289146       0.02377386       0.16541796 </v>
   <v>       0.22426315       0.02389529       0.16635126 </v>
   <v>       0.18163920       0.10497990      -0.02700381 </v>
   <v>      -0.00359730      -0.01128848       0.01784049 </v>
   <v>       0.09019799       0.13192633      -0.02590528 </v>
   <v>       0.00228311      -0.49194136       0.00008020 </v>
   <v>      -0.09251046       0.13147504      -0.02607591 </v>
   <v>      -0.00975479       0.01438532       0.01792422 </v>
   <v>       0.00964790       0.00633612       0.01816675 </v>
   <v>      -0.00315524       0.00141622      -0.00615432 </v>
   <v>       0.08364349      -0.21466410       0.01011941 </v>
   <v>       0.24603619       0.46339308       0.26373032 </v>
   <v>      -0.18066192       0.26375356       0.25674278 </v>
   <v>      -0.09853676      -0.21470979       0.01011484 </v>
   <v>      -0.13565141       0.19990190       0.01038903 </v>
   <v>      -0.39997483      -0.15950459      -0.35988737 </v>
   <v>       0.16564954      -4.93824164      -4.38025857 </v>
   <v>       0.43706064      -0.25345808      -0.35410733 </v>
   <v>       0.14153969       0.19272319       0.01007209 </v>
   <v>       0.32245849       0.04558037       0.25725826 </v>
   <v>      -4.38030681       2.53624088      -4.34058933 </v>
   <v>       4.38621052       2.54026663      -4.33833661 </v>
   <v>      -0.31592859       0.04248139       0.25699266 </v>
   <v>      -0.00013418       0.08102802      -0.02206558 </v>
   <v>       0.11857293      -0.29537398       0.25721599 </v>
   <v>      -0.00056902       0.50809007      -0.35639701 </v>
   <v>      -0.12086832      -0.29303767       0.25609759 </v>
   <v>      -0.08123014      -0.05511058      -0.02632070 </v>
   <v>       0.08547384      -0.04747652      -0.02633344 </v>
   <v>      -0.23560253       0.02546906       0.01013009 </v>
   <v>       0.23505684       0.02076786       0.01022796 </v>
   <v>       0.07590967      -0.04624654      -0.02207706 </v>
   <v>      -0.00080116       0.08311150      -0.02775589 </v>
   <v>      -0.06952759      -0.04265607      -0.02221573 </v>
   <v>       0.00465193       0.06273083      59.98597019 </v>
  </varray>
  <varray name="stress" >
   <v>       9.56571819       0.03889762       0.00287070 </v>
   <v>       0.03889763       9.45753595       0.03804043 </v>
   <v>       0.00287070       0.03804044      31.90188022 </v>
  </varray>
  <energy>
   <i name="e_fr_energy">   -454.33618970 </i>
   <i name="e_wo_entrp">   -454.33612879 </i>
   <i name="e_0_energy">     -0.00012181 </i>
  </energy>
  <time name="totalsc">   42.51   42.55</time>
  <eigenvalues>
   <array>
    <dimension dim="1">band</dimension>
    <dimension dim="2">kpoint</dimension>
    <dimension dim="3">spin</dimension>
    <field>eigene</field>
    <field>occ</field>
    <set>
     <set comment="spin 1">
      <set comment="kpoint 1">
       <r>  -31.7356    1.0000 </r>
       <r>  -22.2705    1.0000 </r>
       <r>  -21.5031    1.0000 </r>
       <r>  -21.5018    1.0000 </r>
       <r>  -21.3949    1.0000 </r>
       <r>  -21.3942    1.0000 </r>
       <r>  -21.3923    1.0000 </r>
       <r>  -20.8758    1.0000 </r>
       <r>  -19.8843    1.0000 </r>
       <r>  -19.8766    1.0000 </r>
       <r>  -19.5493    1.0000 </r>
       <r>  -19.5486    1.0000 </r>
       <r>  -19.5345    1.0000 </r>
       <r>  -19.1928    1.0000 </r>
       <r>  -18.9027    1.0000 </r>
       <r>  -18.9003    1.0000 </r>
       <r>  -18.6438    1.0000 </r>
       <r>  -18.6425    1.0000 </r>
       <r>  -18.6387    1.0000 </r>
       <r>  -17.8869    1.0000 </r>
       <r>  -17.0209    1.0000 </r>
       <r>  -17.0195    1.0000 </r>
       <r>  -16.4753    1.0000 </r>
       <r>  -16.4584    1.0000 </r>
       <r>  -16.4546    1.0000 </r>
       <r>  -16.0508    1.0000 </r>
       <r>  -15.9996    1.0000 </r>
       <r>  -15.9951    1.0000 </r>
       <r>  -15.4975    1.0000 </r>
       <r>  -15.4970    1.0000 </r>
       <r>  -15.4910    1.0000 </r>
       <r>  -15.0871    1.0000 </r>
       <r>  -14.6293    1.0000 </r>
       <r>  -14.6278    1.0000 </r>
       <r>  -14.1541    1.0000 </r>
       <r>  -14.1489    1.0000 </r>
       <r>  -14.1442    1.0000 </r>
       <r>  -13.9635    1.0000 </r>
       <r>  -12.9923    1.0000 </r>
       <r>  -12.9904    1.0000 </r>
       <r>  -12.0312    1.0000 </r>
       <r>  -11.7720    1.0000 </r>
       <r>  -11.7627    1.0000 </r>
       <r>  -11.7597    1.0000 </r>
       <r>  -11.6925    1.0000 </r>
       <r>  -11.6885    1.0000 </r>
       <r>  -11.6525    1.0000 </r>
       <r>  -11.6506    1.0000 </r>
       <r>  -11.6490    1.0000 </r>
       <r>  -11.6432    1.0000 </r>
       <r>  -10.8018    1.0000 </r>
       <r>  -10.8013    1.0000 </r>
       <r>  -10.4288    1.0000 </r>
       <r>  -10.3340    1.0000 </r>
       <r>  -10.2895    1.0000 </r>
       <r>  -10.2870    1.0000 </r>
       <r>  -10.2679    1.0000 </r>
       <r>  -10.0775    1.0000 </r>
       <r>   -9.6877    1.0000 </r>
       <r>   -9.6842    1.0000 </r>
       <r>   -9.3259    1.0000 </r>
       <r>   -9.3239    1.0000 </r>
       <r>   -9.3007    1.0000 </r>
       <r>   -9.2798    1.0000 </r>
       <r>   -9.2775    1.0000 </r>
       <r>   -9.0508    1.0000 </r>
       <r>   -9.0119    1.0000 </r>
       <r>   -9.0049    1.0000 </r>
       <r>   -8.9468    1.0000 </r>
       <r>   -8.9444    1.0000 </r>
       <r>   -8.9405    1.0000 </r>
       <r>   -8.9391    1.0000 </r>
       <r>   -8.9191    1.0000 </r>
       <r>   -8.9097    1.0000 </r>
       <r>   -8.8900    1.0000 </r>
       <r>   -8.4345    1.0000 </r>
       <r>   -7.8042    1.0000 </r>
       <r>   -7.8007    1.0000 </r>
       <r>   -7.3322    1.0000 </r>
       <r>   -7.3252    1.0000 </r>
       <r>   -7.3075    1.0000 </r>
       <r>   -7.3030    1.0000 </r>
       <r>   -7.3001    1.0000 </r>
       <r>   -7.2957    1.0000 </r>
       <r>   -7.1614    1.0000 </r>
       <r>   -7.1604    1.0000 </r>
       <r>   -7.1513    1.0000 </r>
       <r>   -6.7527    1.0000 </r>
       <r>   -6.5098    1.0000 </r>
       <r>   -6.5060    1.0000 </r>
       <r>   -6.2668    1.0000 </r>
       <r>   -6.2465    1.0000 </r>
       <r>   -6.2432    1.0000 </r>
       <r>   -5.9270    1.0000 </r>
       <r>   -5.9191    1.0000 </r>
       <r>   -5.1984    1.0000 </r>
       <r>   -4.7639    1.0000 </r>
       <r>   -4.7601    1.0000 </r>
       <r>   -4.2692    1.0000 </r>
       <r>   -4.2667    1.0000 </r>
       <r>   -4.2626    1.0000 </r>
       <r>   -3.2151    1.0000 </r>
       <r>   -3.2125    1.0000 </r>
       <r>   -2.9168    0.0023 </r>
       <r>   -1.4649    0.0000 </r>
       <r>   -1.4572    0.0000 </r>
       <r>   -1.4567    0.0000 </r>
       <r>   -0.9934    0.0000 </r>
       <r>   -0.9886    0.0000 </r>
       <r>   -0.5406    0.0000 </r>
       <r>    0.4156    0.0000 </r>
       <r>    0.4189    0.0000 </r>
       <r>    0.4229    0.0000 </r>
       <r>    0.5617    0.0000 </r>
       <r>    0.8403    0.0000 </r>
       <r>    0.8492    0.0000 </r>
       <r>    1.2935    0.0000 </r>
       <r>    1.3399    0.0000 </r>
       <r>    1.6794    0.0000 </r>
       <r>    1.8012    0.0000 </r>
       <r>    1.8015    0.0000 </r>
       <r>    1.8026    0.0000 </r>
       <r>    1.8263    0.0000 </r>
       <r>    1.8274    0.0000 </r>
       <r>    2.0312    0.0000 </r>
       <r>    2.1720    0.0000 </r>
       <r>    2.1787    0.0000 </r>
       <r>    2.1823    0.0000 </r>
       <r>    2.3471    0.0000 </r>
       <r>    2.3541    0.0000 </r>
       <r>    2.6138    0.0000 </r>
       <r>    2.6562    0.0000 </r>
      </set>
      <set comment="kpoint 2">
       <r>  -31.7357    1.0000 </r>
       <r>  -22.1887    1.0000 </r>
       <r>  -21.8681    1.0000 </r>
       <r>  -21.6607    1.0000 </r>
       <r>  -21.4549    1.0000 </r>
       <r>  -21.0348    1.0000 </r>
       <r>  -20.8979    1.0000 </r>
       <r>  -20.7267    1.0000 </r>
       <r>  -20.4209    1.0000 </r>
       <r>  -20.1642    1.0000 </r>
       <r>  -19.7858    1.0000 </r>
       <r>  -19.7020    1.0000 </r>
       <r>  -19.3266    1.0000 </r>
       <r>  -19.2438    1.0000 </r>
       <r>  -19.0598    1.0000 </r>
       <r>  -18.5920    1.0000 </r>
       <r>  -18.4596    1.0000 </r>
       <r>  -18.1218    1.0000 </r>
       <r>  -18.0617    1.0000 </r>
       <r>  -17.5877    1.0000 </r>
       <r>  -17.4991    1.0000 </r>
       <r>  -17.3031    1.0000 </r>
       <r>  -17.2741    1.0000 </r>
       <r>  -16.8526    1.0000 </r>
       <r>  -16.6529    1.0000 </r>
       <r>  -16.1763    1.0000 </r>
       <r>  -15.9772    1.0000 </r>
       <r>  -15.8468    1.0000 </r>
       <r>  -15.2976    1.0000 </r>
       <r>  -15.1719    1.0000 </r>
       <r>  -15.1340    1.0000 </r>
       <r>  -14.8852    1.0000 </r>
       <r>  -14.7808    1.0000 </r>
       <r>  -14.4770    1.0000 </r>
       <r>  -14.4541    1.0000 </r>
       <r>  -13.7681    1.0000 </r>
       <r>  -13.7605    1.0000 </r>
       <r>  -13.1974    1.0000 </r>
       <r>  -13.0876    1.0000 </r>
       <r>  -12.9357    1.0000 </r>
       <r>  -12.9046    1.0000 </r>
       <r>  -12.5859    1.0000 </r>
       <r>  -12.5492    1.0000 </r>
       <r>  -12.3916    1.0000 </r>
       <r>  -12.0200    1.0000 </r>
       <r>  -11.6629    1.0000 </r>
       <r>  -11.4475    1.0000 </r>
       <r>  -11.2958    1.0000 </r>
       <r>  -11.1197    1.0000 </r>
       <r>  -10.9149    1.0000 </r>
       <r>  -10.8499    1.0000 </r>
       <r>  -10.5840    1.0000 </r>
       <r>  -10.5343    1.0000 </r>
       <r>  -10.2848    1.0000 </r>
       <r>  -10.2367    1.0000 </r>
       <r>  -10.1611    1.0000 </r>
       <r>  -10.0490    1.0000 </r>
       <r>   -9.8528    1.0000 </r>
       <r>   -9.8196    1.0000 </r>
       <r>   -9.6515    1.0000 </r>
       <r>   -9.6071    1.0000 </r>
       <r>   -9.5605    1.0000 </r>
       <r>   -9.5274    1.0000 </r>
       <r>   -9.3731    1.0000 </r>
       <r>   -9.3396    1.0000 </r>
       <r>   -9.2593    1.0000 </r>
       <r>   -9.1741    1.0000 </r>
       <r>   -9.0991    1.0000 </r>
       <r>   -9.0824    1.0000 </r>
       <r>   -8.8650    1.0000 </r>
       <r>   -8.7139    1.0000 </r>
       <r>   -8.6649    1.0000 </r>
       <r>   -8.5036    1.0000 </r>
       <r>   -8.4020    1.0000 </r>
       <r>   -8.2858    1.0000 </r>
       <r>   -8.1335    1.0000 </r>
       <r>   -8.0949    1.0000 </r>
       <r>   -8.0648    1.0000 </r>
       <r>   -7.9720    1.0000 </r>
       <r>   -7.8088    1.0000 </r>
       <r>   -7.6214    1.0000 </r>
       <r>   -7.3593    1.0000 </r>
       <r>   -7.3375    1.0000 </r>
       <r>   -7.2662    1.0000 </r>
       <r>   -7.1983    1.0000 </r>
       <r>   -6.9205    1.0000 </r>
       <r>   -6.8738    1.0000 </r>
       <r>   -6.6940    1.0000 </r>
       <r>   -6.5903    1.0000 </r>
       <r>   -6.3485    1.0000 </r>
       <r>   -6.1856    1.0000 </r>
       <r>   -6.0727    1.0000 </r>
       <r>   -5.9235    1.0000 </r>
       <r>   -5.7387    1.0000 </r>
       <r>   -5.6398    1.0000 </r>
       <r>   -5.3202    1.0000 </r>
       <r>   -5.1147    1.0000 </r>
       <r>   -4.9713    1.0000 </r>
       <r>   -4.9206    1.0000 </r>
       <r>   -4.2706    1.0000 </r>
       <r>   -4.1637    1.0000 </r>
       <r>   -3.3383    1.0000 </r>
       <r>   -3.1356    0.9996 </r>
       <r>   -2.8025    0.0000 </r>
       <r>   -1.5932    0.0000 </r>
       <r>   -1.4223    0.0000 </r>
       <r>   -0.8402    0.0000 </r>
       <r>   -0.8216    0.0000 </r>
       <r>   -0.7074    0.0000 </r>
       <r>   -0.6674    0.0000 </r>
       <r>   -0.1276    0.0000 </r>
       <r>   -0.0068    0.0000 </r>
       <r>    0.2955    0.0000 </r>
       <r>    0.7040    0.0000 </r>
       <r>    0.7268    0.0000 </r>
       <r>    1.0992    0.0000 </r>
       <r>    1.1746    0.0000 </r>
       <r>    1.3665    0.0000 </r>
       <r>    1.4622    0.0000 </r>
       <r>    1.5374    0.0000 </r>
       <r>    1.5704    0.0000 </r>
       <r>    1.6370    0.0000 </r>
       <r>    1.8287    0.0000 </r>
       <r>    1.9118    0.0000 </r>
       <r>    2.0430    0.0000 </r>
       <r>    2.2208    0.0000 </r>
       <r>    2.2696    0.0000 </r>
       <r>    2.3279    0.0000 </r>
       <r>    2.3399    0.0000 </r>
       <r>    2.3958    0.0000 </r>
       <r>    2.4577    0.0000 </r>
       <r>    2.7946    0.0000 </r>
      </set>
      <set comment="kpoint 3">
       <r>  -31.7357    1.0000 </r>
       <r>  -22.1884    1.0000 </r>
       <r>  -21.8692    1.0000 </r>
       <r>  -21.6605    1.0000 </r>
       <r>  -21.4536    1.0000 </r>
       <r>  -21.0341    1.0000 </r>
       <r>  -20.8985    1.0000 </r>
       <r>  -20.7294    1.0000 </r>
       <r>  -20.4192    1.0000 </r>
       <r>  -20.1635    1.0000 </r>
       <r>  -19.7882    1.0000 </r>
       <r>  -19.6994    1.0000 </r>
       <r>  -19.3271    1.0000 </r>
       <r>  -19.2408    1.0000 </r>
       <r>  -19.0649    1.0000 </r>
       <r>  -18.5913    1.0000 </r>
       <r>  -18.4587    1.0000 </r>
       <r>  -18.1188    1.0000 </r>
       <r>  -18.0643    1.0000 </r>
       <r>  -17.5894    1.0000 </r>
       <r>  -17.4976    1.0000 </r>
       <r>  -17.3007    1.0000 </r>
       <r>  -17.2763    1.0000 </r>
       <r>  -16.8515    1.0000 </r>
       <r>  -16.6554    1.0000 </r>
       <r>  -16.1739    1.0000 </r>
       <r>  -15.9769    1.0000 </r>
       <r>  -15.8477    1.0000 </r>
       <r>  -15.2990    1.0000 </r>
       <r>  -15.1697    1.0000 </r>
       <r>  -15.1329    1.0000 </r>
       <r>  -14.8881    1.0000 </r>
       <r>  -14.7816    1.0000 </r>
       <r>  -14.4778    1.0000 </r>
       <r>  -14.4542    1.0000 </r>
       <r>  -13.7679    1.0000 </r>
       <r>  -13.7590    1.0000 </r>
       <r>  -13.1973    1.0000 </r>
       <r>  -13.0898    1.0000 </r>
       <r>  -12.9330    1.0000 </r>
       <r>  -12.9028    1.0000 </r>
       <r>  -12.5857    1.0000 </r>
       <r>  -12.5482    1.0000 </r>
       <r>  -12.3895    1.0000 </r>
       <r>  -12.0233    1.0000 </r>
       <r>  -11.6675    1.0000 </r>
       <r>  -11.4475    1.0000 </r>
       <r>  -11.2960    1.0000 </r>
       <r>  -11.1214    1.0000 </r>
       <r>  -10.9123    1.0000 </r>
       <r>  -10.8517    1.0000 </r>
       <r>  -10.5842    1.0000 </r>
       <r>  -10.5300    1.0000 </r>
       <r>  -10.2844    1.0000 </r>
       <r>  -10.2365    1.0000 </r>
       <r>  -10.1631    1.0000 </r>
       <r>  -10.0472    1.0000 </r>
       <r>   -9.8535    1.0000 </r>
       <r>   -9.8209    1.0000 </r>
       <r>   -9.6544    1.0000 </r>
       <r>   -9.6041    1.0000 </r>
       <r>   -9.5610    1.0000 </r>
       <r>   -9.5237    1.0000 </r>
       <r>   -9.3714    1.0000 </r>
       <r>   -9.3394    1.0000 </r>
       <r>   -9.2577    1.0000 </r>
       <r>   -9.1755    1.0000 </r>
       <r>   -9.1009    1.0000 </r>
       <r>   -9.0820    1.0000 </r>
       <r>   -8.8641    1.0000 </r>
       <r>   -8.7133    1.0000 </r>
       <r>   -8.6647    1.0000 </r>
       <r>   -8.5064    1.0000 </r>
       <r>   -8.4075    1.0000 </r>
       <r>   -8.2873    1.0000 </r>
       <r>   -8.1341    1.0000 </r>
       <r>   -8.0944    1.0000 </r>
       <r>   -8.0677    1.0000 </r>
       <r>   -7.9711    1.0000 </r>
       <r>   -7.8089    1.0000 </r>
       <r>   -7.6168    1.0000 </r>
       <r>   -7.3602    1.0000 </r>
       <r>   -7.3339    1.0000 </r>
       <r>   -7.2655    1.0000 </r>
       <r>   -7.1953    1.0000 </r>
       <r>   -6.9208    1.0000 </r>
       <r>   -6.8711    1.0000 </r>
       <r>   -6.6961    1.0000 </r>
       <r>   -6.5938    1.0000 </r>
       <r>   -6.3470    1.0000 </r>
       <r>   -6.1870    1.0000 </r>
       <r>   -6.0743    1.0000 </r>
       <r>   -5.9218    1.0000 </r>
       <r>   -5.7371    1.0000 </r>
       <r>   -5.6413    1.0000 </r>
       <r>   -5.3217    1.0000 </r>
       <r>   -5.1146    1.0000 </r>
       <r>   -4.9701    1.0000 </r>
       <r>   -4.9226    1.0000 </r>
       <r>   -4.2698    1.0000 </r>
       <r>   -4.1649    1.0000 </r>
       <r>   -3.3313    1.0000 </r>
       <r>   -3.1358    0.9996 </r>
       <r>   -2.8073    0.0000 </r>
       <r>   -1.5958    0.0000 </r>
       <r>   -1.4235    0.0000 </r>
       <r>   -0.8400    0.0000 </r>
       <r>   -0.8194    0.0000 </r>
       <r>   -0.7066    0.0000 </r>
       <r>   -0.6659    0.0000 </r>
       <r>   -0.1266    0.0000 </r>
       <r>   -0.0090    0.0000 </r>
       <r>    0.2953    0.0000 </r>
       <r>    0.7040    0.0000 </r>
       <r>    0.7277    0.0000 </r>
       <r>    1.1012    0.0000 </r>
       <r>    1.1780    0.0000 </r>
       <r>    1.3600    0.0000 </r>
       <r>    1.4630    0.0000 </r>
       <r>    1.5371    0.0000 </r>
       <r>    1.5711    0.0000 </r>
       <r>    1.6379    0.0000 </r>
       <r>    1.8296    0.0000 </r>
       <r>    1.9128    0.0000 </r>
       <r>    2.0393    0.0000 </r>
       <r>    2.2312    0.0000 </r>
       <r>    2.2732    0.0000 </r>
       <r>    2.3357    0.0000 </r>
       <r>    2.4269    0.0000 </r>
       <r>    2.7390    0.0000 </r>
       <r>    3.2542    0.0000 </r>
       <r>    3.6144    0.0000 </r>
      </set>
      <set comment="kpoint 4">
       <r>  -31.7357    1.0000 </r>
       <r>  -22.1885    1.0000 </r>
       <r>  -21.8689    1.0000 </r>
       <r>  -21.6605    1.0000 </r>
       <r>  -21.4540    1.0000 </r>
       <r>  -21.0340    1.0000 </r>
       <r>  -20.8982    1.0000 </r>
       <r>  -20.7293    1.0000 </r>
       <r>  -20.4189    1.0000 </r>
       <r>  -20.1639    1.0000 </r>
       <r>  -19.7881    1.0000 </r>
       <r>  -19.7003    1.0000 </r>
       <r>  -19.3263    1.0000 </r>
       <r>  -19.2421    1.0000 </r>
       <r>  -19.0635    1.0000 </r>
       <r>  -18.5900    1.0000 </r>
       <r>  -18.4598    1.0000 </r>
       <r>  -18.1205    1.0000 </r>
       <r>  -18.0627    1.0000 </r>
       <r>  -17.5913    1.0000 </r>
       <r>  -17.4951    1.0000 </r>
       <r>  -17.2998    1.0000 </r>
       <r>  -17.2766    1.0000 </r>
       <r>  -16.8520    1.0000 </r>
       <r>  -16.6584    1.0000 </r>
       <r>  -16.1757    1.0000 </r>
       <r>  -15.9764    1.0000 </r>
       <r>  -15.8467    1.0000 </r>
       <r>  -15.2961    1.0000 </r>
       <r>  -15.1710    1.0000 </r>
       <r>  -15.1317    1.0000 </r>
       <r>  -14.8850    1.0000 </r>
       <r>  -14.7801    1.0000 </r>
       <r>  -14.4778    1.0000 </r>
       <r>  -14.4568    1.0000 </r>
       <r>  -13.7688    1.0000 </r>
       <r>  -13.7604    1.0000 </r>
       <r>  -13.1950    1.0000 </r>
       <r>  -13.0915    1.0000 </r>
       <r>  -12.9356    1.0000 </r>
       <r>  -12.9052    1.0000 </r>
       <r>  -12.5847    1.0000 </r>
       <r>  -12.5527    1.0000 </r>
       <r>  -12.3867    1.0000 </r>
       <r>  -12.0213    1.0000 </r>
       <r>  -11.6643    1.0000 </r>
       <r>  -11.4461    1.0000 </r>
       <r>  -11.2945    1.0000 </r>
       <r>  -11.1203    1.0000 </r>
       <r>  -10.9161    1.0000 </r>
       <r>  -10.8458    1.0000 </r>
       <r>  -10.5821    1.0000 </r>
       <r>  -10.5364    1.0000 </r>
       <r>  -10.2872    1.0000 </r>
       <r>  -10.2366    1.0000 </r>
       <r>  -10.1586    1.0000 </r>
       <r>  -10.0476    1.0000 </r>
       <r>   -9.8530    1.0000 </r>
       <r>   -9.8251    1.0000 </r>
       <r>   -9.6538    1.0000 </r>
       <r>   -9.6072    1.0000 </r>
       <r>   -9.5603    1.0000 </r>
       <r>   -9.5289    1.0000 </r>
       <r>   -9.3695    1.0000 </r>
       <r>   -9.3406    1.0000 </r>
       <r>   -9.2599    1.0000 </r>
       <r>   -9.1742    1.0000 </r>
       <r>   -9.0979    1.0000 </r>
       <r>   -9.0826    1.0000 </r>
       <r>   -8.8646    1.0000 </r>
       <r>   -8.7125    1.0000 </r>
       <r>   -8.6645    1.0000 </r>
       <r>   -8.5063    1.0000 </r>
       <r>   -8.3966    1.0000 </r>
       <r>   -8.2878    1.0000 </r>
       <r>   -8.1319    1.0000 </r>
       <r>   -8.0937    1.0000 </r>
       <r>   -8.0614    1.0000 </r>
       <r>   -7.9716    1.0000 </r>
       <r>   -7.8087    1.0000 </r>
       <r>   -7.6273    1.0000 </r>
       <r>   -7.3627    1.0000 </r>
       <r>   -7.3379    1.0000 </r>
       <r>   -7.2671    1.0000 </r>
       <r>   -7.1991    1.0000 </r>
       <r>   -6.9203    1.0000 </r>
       <r>   -6.8729    1.0000 </r>
       <r>   -6.6900    1.0000 </r>
       <r>   -6.5924    1.0000 </r>
       <r>   -6.3523    1.0000 </r>
       <r>   -6.1827    1.0000 </r>
       <r>   -6.0709    1.0000 </r>
       <r>   -5.9226    1.0000 </r>
       <r>   -5.7395    1.0000 </r>
       <r>   -5.6397    1.0000 </r>
       <r>   -5.3223    1.0000 </r>
       <r>   -5.1119    1.0000 </r>
       <r>   -4.9693    1.0000 </r>
       <r>   -4.9216    1.0000 </r>
       <r>   -4.2696    1.0000 </r>
       <r>   -4.1679    1.0000 </r>
       <r>   -3.3361    1.0000 </r>
       <r>   -3.1366    0.9996 </r>
       <r>   -2.8030    0.0000 </r>
       <r>   -1.5897    0.0000 </r>
       <r>   -1.4237    0.0000 </r>
       <r>   -0.8418    0.0000 </r>
       <r>   -0.8191    0.0000 </r>
       <r>   -0.7070    0.0000 </r>
       <r>   -0.6707    0.0000 </r>
       <r>   -0.1310    0.0000 </r>
       <r>   -0.0038    0.0000 </r>
       <r>    0.2959    0.0000 </r>
       <r>    0.7043    0.0000 </r>
       <r>    0.7249    0.0000 </r>
       <r>    1.1005    0.0000 </r>
       <r>    1.1768    0.0000 </r>
       <r>    1.3683    0.0000 </r>
       <r>    1.4641    0.0000 </r>
       <r>    1.5619    0.0000 </r>
       <r>    1.5784    0.0000 </r>
       <r>    1.7513    0.0000 </r>
       <r>    1.8299    0.0000 </r>
       <r>    2.1818    0.0000 </r>
       <r>    2.3353    0.0000 </r>
       <r>    2.3971    0.0000 </r>
       <r>    2.6143    0.0000 </r>
       <r>    2.7874    0.0000 </r>
       <r>    2.8468    0.0000 </r>
       <r>    3.2037    0.0000 </r>
       <r>    3.5949    0.0000 </r>
       <r>    4.1760    0.0000 </r>
      </set>
      <set comment="kpoint 5">
       <r>  -31.7357    1.0000 </r>
       <r>  -22.0801    1.0000 </r>
       <r>  -22.0071    1.0000 </r>
       <r>  -21.8006    1.0000 </r>
       <r>  -21.1721    1.0000 </r>
       <r>  -21.1506    1.0000 </r>
       <r>  -20.8676    1.0000 </r>
       <r>  -20.4157    1.0000 </r>
       <r>  -20.3408    1.0000 </r>
       <r>  -20.1704    1.0000 </r>
       <r>  -20.1503    1.0000 </r>
       <r>  -20.1415    1.0000 </r>
       <r>  -19.5694    1.0000 </r>
       <r>  -18.8286    1.0000 </r>
       <r>  -18.6749    1.0000 </r>
       <r>  -18.3718    1.0000 </r>
       <r>  -18.3487    1.0000 </r>
       <r>  -18.3359    1.0000 </r>
       <r>  -17.9260    1.0000 </r>
       <r>  -17.8026    1.0000 </r>
       <r>  -17.6016    1.0000 </r>
       <r>  -17.2608    1.0000 </r>
       <r>  -17.1530    1.0000 </r>
       <r>  -17.1186    1.0000 </r>
       <r>  -16.5445    1.0000 </r>
       <r>  -16.4365    1.0000 </r>
       <r>  -16.2825    1.0000 </r>
       <r>  -15.8075    1.0000 </r>
       <r>  -15.6282    1.0000 </r>
       <r>  -15.1745    1.0000 </r>
       <r>  -14.9693    1.0000 </r>
       <r>  -14.6525    1.0000 </r>
       <r>  -13.9622    1.0000 </r>
       <r>  -13.9404    1.0000 </r>
       <r>  -13.9247    1.0000 </r>
       <r>  -13.8745    1.0000 </r>
       <r>  -13.8601    1.0000 </r>
       <r>  -13.7908    1.0000 </r>
       <r>  -13.6752    1.0000 </r>
       <r>  -13.4947    1.0000 </r>
       <r>  -13.0392    1.0000 </r>
       <r>  -12.4741    1.0000 </r>
       <r>  -12.2545    1.0000 </r>
       <r>  -12.0695    1.0000 </r>
       <r>  -11.8246    1.0000 </r>
       <r>  -11.7712    1.0000 </r>
       <r>  -11.5646    1.0000 </r>
       <r>  -11.5465    1.0000 </r>
       <r>  -11.5236    1.0000 </r>
       <r>  -10.9315    1.0000 </r>
       <r>  -10.8130    1.0000 </r>
       <r>  -10.5304    1.0000 </r>
       <r>  -10.2061    1.0000 </r>
       <r>  -10.2029    1.0000 </r>
       <r>  -10.1933    1.0000 </r>
       <r>  -10.0945    1.0000 </r>
       <r>  -10.0522    1.0000 </r>
       <r>  -10.0217    1.0000 </r>
       <r>   -9.9018    1.0000 </r>
       <r>   -9.7510    1.0000 </r>
       <r>   -9.7486    1.0000 </r>
       <r>   -9.5651    1.0000 </r>
       <r>   -9.4388    1.0000 </r>
       <r>   -9.4107    1.0000 </r>
       <r>   -9.1976    1.0000 </r>
       <r>   -9.0449    1.0000 </r>
       <r>   -9.0341    1.0000 </r>
       <r>   -8.9003    1.0000 </r>
       <r>   -8.8849    1.0000 </r>
       <r>   -8.6903    1.0000 </r>
       <r>   -8.6403    1.0000 </r>
       <r>   -8.6341    1.0000 </r>
       <r>   -8.6176    1.0000 </r>
       <r>   -8.5835    1.0000 </r>
       <r>   -8.3724    1.0000 </r>
       <r>   -8.2559    1.0000 </r>
       <r>   -8.1640    1.0000 </r>
       <r>   -8.0365    1.0000 </r>
       <r>   -7.9856    1.0000 </r>
       <r>   -7.8781    1.0000 </r>
       <r>   -7.8582    1.0000 </r>
       <r>   -7.8538    1.0000 </r>
       <r>   -7.2234    1.0000 </r>
       <r>   -7.1860    1.0000 </r>
       <r>   -7.1292    1.0000 </r>
       <r>   -6.8853    1.0000 </r>
       <r>   -6.7216    1.0000 </r>
       <r>   -6.6167    1.0000 </r>
       <r>   -6.4599    1.0000 </r>
       <r>   -6.2677    1.0000 </r>
       <r>   -6.1029    1.0000 </r>
       <r>   -5.9154    1.0000 </r>
       <r>   -5.9113    1.0000 </r>
       <r>   -5.8976    1.0000 </r>
       <r>   -5.4527    1.0000 </r>
       <r>   -5.4223    1.0000 </r>
       <r>   -5.1202    1.0000 </r>
       <r>   -5.0136    1.0000 </r>
       <r>   -4.9808    1.0000 </r>
       <r>   -4.9572    1.0000 </r>
       <r>   -3.7291    1.0000 </r>
       <r>   -3.4593    1.0000 </r>
       <r>   -3.2782    1.0000 </r>
       <r>   -2.3882    0.0000 </r>
       <r>   -2.2240    0.0000 </r>
       <r>   -0.9296    0.0000 </r>
       <r>   -0.8843    0.0000 </r>
       <r>   -0.8676    0.0000 </r>
       <r>   -0.5379    0.0000 </r>
       <r>   -0.2620    0.0000 </r>
       <r>   -0.2139    0.0000 </r>
       <r>    0.2504    0.0000 </r>
       <r>    0.2584    0.0000 </r>
       <r>    0.2599    0.0000 </r>
       <r>    0.6005    0.0000 </r>
       <r>    0.7963    0.0000 </r>
       <r>    0.9478    0.0000 </r>
       <r>    0.9731    0.0000 </r>
       <r>    1.0618    0.0000 </r>
       <r>    1.7363    0.0000 </r>
       <r>    1.7436    0.0000 </r>
       <r>    1.7664    0.0000 </r>
       <r>    1.8286    0.0000 </r>
       <r>    2.1158    0.0000 </r>
       <r>    2.1198    0.0000 </r>
       <r>    2.1278    0.0000 </r>
       <r>    2.2460    0.0000 </r>
       <r>    2.2477    0.0000 </r>
       <r>    2.3614    0.0000 </r>
       <r>    2.9968    0.0000 </r>
       <r>    3.0110    0.0000 </r>
       <r>    3.0360    0.0000 </r>
      </set>
     </set>
    </set>
   </array>
  </eigenvalues>
  <separator name="orbital magnetization" >
   <v name="MAGDIPOLOUT">      0.00000000      0.00000000      0.00000000</v>
  </separator>
  <dos>
   <i name="efermi">     -3.01701970 </i>
   <total>
    <array>
     <dimension dim="1">gridpoints</dimension>
     <dimension dim="2">spin</dimension>
     <field>energy</field>
     <field>total</field>
     <field>integrated</field>
     <set>
      <set comment="spin 1">
       <r>   -33.5313     0.0000     0.0000 </r>
       <r>   -33.3996     0.0000     0.0000 </r>
       <r>   -33.2680     0.0000     0.0000 </r>
       <r>   -33.1363     0.0000     0.0000 </r>
       <r>   -33.0046     0.0000     0.0000 </r>
       <r>   -32.8729     0.0000     0.0000 </r>
       <r>   -32.7412     0.0000     0.0000 </r>
       <r>   -32.6096     0.0000     0.0000 </r>
       <r>   -32.4779     0.0000     0.0000 </r>
       <r>   -32.3462     0.0000     0.0000 </r>
       <r>   -32.2145     0.0000     0.0000 </r>
       <r>   -32.0829     0.0000     0.0000 </r>
       <r>   -31.9512     0.0000     0.0000 </r>
       <r>   -31.8195     0.1346     0.0177 </r>
       <r>   -31.6878    13.7171     1.8239 </r>
       <r>   -31.5562     1.3370     2.0000 </r>
       <r>   -31.4245     0.0000     2.0000 </r>
       <r>   -31.2928     0.0000     2.0000 </r>
       <r>   -31.1611     0.0000     2.0000 </r>
       <r>   -31.0295     0.0000     2.0000 </r>
       <r>   -30.8978     0.0000     2.0000 </r>
       <r>   -30.7661     0.0000     2.0000 </r>
       <r>   -30.6344     0.0000     2.0000 </r>
       <r>   -30.5027     0.0000     2.0000 </r>
       <r>   -30.3711     0.0000     2.0000 </r>
       <r>   -30.2394     0.0000     2.0000 </r>
       <r>   -30.1077     0.0000     2.0000 </r>
       <r>   -29.9760     0.0000     2.0000 </r>
       <r>   -29.8444     0.0000     2.0000 </r>
       <r>   -29.7127     0.0000     2.0000 </r>
       <r>   -29.5810     0.0000     2.0000 </r>
       <r>   -29.4493     0.0000     2.0000 </r>
       <r>   -29.3177     0.0000     2.0000 </r>
       <r>   -29.1860     0.0000     2.0000 </r>
       <r>   -29.0543     0.0000     2.0000 </r>
       <r>   -28.9226     0.0000     2.0000 </r>
       <r>   -28.7910     0.0000     2.0000 </r>
       <r>   -28.6593     0.0000     2.0000 </r>
       <r>   -28.5276     0.0000     2.0000 </r>
       <r>   -28.3959     0.0000     2.0000 </r>
       <r>   -28.2643     0.0000     2.0000 </r>
       <r>   -28.1326     0.0000     2.0000 </r>
       <r>   -28.0009     0.0000     2.0000 </r>
       <r>   -27.8692     0.0000     2.0000 </r>
       <r>   -27.7375     0.0000     2.0000 </r>
       <r>   -27.6059     0.0000     2.0000 </r>
       <r>   -27.4742     0.0000     2.0000 </r>
       <r>   -27.3425     0.0000     2.0000 </r>
       <r>   -27.2108     0.0000     2.0000 </r>
       <r>   -27.0792     0.0000     2.0000 </r>
       <r>   -26.9475     0.0000     2.0000 </r>
       <r>   -26.8158     0.0000     2.0000 </r>
       <r>   -26.6841     0.0000     2.0000 </r>
       <r>   -26.5525     0.0000     2.0000 </r>
       <r>   -26.4208     0.0000     2.0000 </r>
       <r>   -26.2891     0.0000     2.0000 </r>
       <r>   -26.1574     0.0000     2.0000 </r>
       <r>   -26.0258     0.0000     2.0000 </r>
       <r>   -25.8941     0.0000     2.0000 </r>
       <r>   -25.7624     0.0000     2.0000 </r>
       <r>   -25.6307     0.0000     2.0000 </r>
       <r>   -25.4990     0.0000     2.0000 </r>
       <r>   -25.3674     0.0000     2.0000 </r>
       <r>   -25.2357     0.0000     2.0000 </r>
       <r>   -25.1040     0.0000     2.0000 </r>
       <r>   -24.9723     0.0000     2.0000 </r>
       <r>   -24.8407     0.0000     2.0000 </r>
       <r>   -24.7090     0.0000     2.0000 </r>
       <r>   -24.5773     0.0000     2.0000 </r>
       <r>   -24.4456     0.0000     2.0000 </r>
       <r>   -24.3140     0.0000     2.0000 </r>
       <r>   -24.1823     0.0000     2.0000 </r>
       <r>   -24.0506     0.0000     2.0000 </r>
       <r>   -23.9189     0.0000     2.0000 </r>
       <r>   -23.7873     0.0000     2.0000 </r>
       <r>   -23.6556     0.0000     2.0000 </r>
       <r>   -23.5239     0.0000     2.0000 </r>
       <r>   -23.3922     0.0000     2.0000 </r>
       <r>   -23.2606     0.0000     2.0000 </r>
       <r>   -23.1289     0.0000     2.0000 </r>
       <r>   -22.9972     0.0000     2.0000 </r>
       <r>   -22.8655     0.0000     2.0000 </r>
       <r>   -22.7338     0.0000     2.0000 </r>
       <r>   -22.6022     0.0000     2.0000 </r>
       <r>   -22.4705     0.0000     2.0000 </r>
       <r>   -22.3388     0.0451     2.0059 </r>
       <r>   -22.2071     4.6089     2.6128 </r>
       <r>   -22.0755     9.1076     3.8121 </r>
       <r>   -21.9438     4.8493     4.4506 </r>
       <r>   -21.8121    10.7823     5.8704 </r>
       <r>   -21.6804     5.5781     6.6049 </r>
       <r>   -21.5488     7.5715     7.6019 </r>
       <r>   -21.4171    12.9246     9.3038 </r>
       <r>   -21.2854     5.2846     9.9996 </r>
       <r>   -21.1537     3.9314    10.5173 </r>
       <r>   -21.0221     9.2579    11.7363 </r>
       <r>   -20.8904    11.0907    13.1967 </r>
       <r>   -20.7587     9.7720    14.4835 </r>
       <r>   -20.6270     8.1210    15.5528 </r>
       <r>   -20.4953     0.2260    15.5826 </r>
       <r>   -20.3637    13.3597    17.3417 </r>
       <r>   -20.2320     3.7714    17.8383 </r>
       <r>   -20.1003    18.6668    20.2963 </r>
       <r>   -19.9686     1.1474    20.4474 </r>
       <r>   -19.8370     3.7943    20.9470 </r>
       <r>   -19.7053    14.1067    22.8045 </r>
       <r>   -19.5736     8.2749    23.8941 </r>
       <r>   -19.4419     5.8605    24.6658 </r>
       <r>   -19.3103     7.1565    25.6081 </r>
       <r>   -19.1786    13.8493    27.4318 </r>
       <r>   -19.0469     7.7526    28.4526 </r>
       <r>   -18.9152     4.5159    29.0472 </r>
       <r>   -18.7836     5.2087    29.7331 </r>
       <r>   -18.6519     5.2372    30.4227 </r>
       <r>   -18.5202    13.8682    32.2488 </r>
       <r>   -18.3885    11.4383    33.7550 </r>
       <r>   -18.2568     8.5514    34.8810 </r>
       <r>   -18.1252     4.9716    35.5356 </r>
       <r>   -17.9935    15.1836    37.5350 </r>
       <r>   -17.8618     4.8566    38.1745 </r>
       <r>   -17.7301     3.6703    38.6578 </r>
       <r>   -17.5985     5.9438    39.4404 </r>
       <r>   -17.4668    15.7785    41.5181 </r>
       <r>   -17.3351     4.2093    42.0724 </r>
       <r>   -17.2034    21.2622    44.8721 </r>
       <r>   -17.0718     6.7737    45.7640 </r>
       <r>   -16.9401     3.5047    46.2255 </r>
       <r>   -16.8084     8.9998    47.4105 </r>
       <r>   -16.6767     3.8843    47.9220 </r>
       <r>   -16.5451     9.0643    49.1156 </r>
       <r>   -16.4134     8.7829    50.2721 </r>
       <r>   -16.2817     3.0402    50.6724 </r>
       <r>   -16.1500     9.3683    51.9060 </r>
       <r>   -16.0184     5.9358    52.6876 </r>
       <r>   -15.8867    12.9701    54.3954 </r>
       <r>   -15.7550    11.9080    55.9634 </r>
       <r>   -15.6233     2.1527    56.2469 </r>
       <r>   -15.4916     4.2310    56.8040 </r>
       <r>   -15.3600     2.7246    57.1628 </r>
       <r>   -15.2283    10.2588    58.5136 </r>
       <r>   -15.0966    21.9921    61.4095 </r>
       <r>   -14.9649     4.7800    62.0389 </r>
       <r>   -14.8333    11.5317    63.5573 </r>
       <r>   -14.7016    10.3289    64.9174 </r>
       <r>   -14.5699     6.3882    65.7586 </r>
       <r>   -14.4382    15.8360    67.8438 </r>
       <r>   -14.3066     4.5613    68.4444 </r>
       <r>   -14.1749     1.1851    68.6005 </r>
       <r>   -14.0432     3.9356    69.1187 </r>
       <r>   -13.9115    10.2321    70.4660 </r>
       <r>   -13.7799    16.9930    72.7036 </r>
       <r>   -13.6482    17.5225    75.0109 </r>
       <r>   -13.5165     1.6694    75.2307 </r>
       <r>   -13.3848     2.4637    75.5551 </r>
       <r>   -13.2531     0.5578    75.6286 </r>
       <r>   -13.1215    11.3011    77.1167 </r>
       <r>   -12.9898    13.9054    78.9477 </r>
       <r>   -12.8581    20.3638    81.6291 </r>
       <r>   -12.7264     1.1293    81.7778 </r>
       <r>   -12.5948     5.0537    82.4433 </r>
       <r>   -12.4631    17.4111    84.7359 </r>
       <r>   -12.3314    10.8186    86.1605 </r>
       <r>   -12.1997     3.6396    86.6397 </r>
       <r>   -12.0681     3.1512    87.0547 </r>
       <r>   -11.9364    12.1568    88.6554 </r>
       <r>   -11.8047     3.7416    89.1481 </r>
       <r>   -11.6730    16.2665    91.2900 </r>
       <r>   -11.5414    17.6034    93.6080 </r>
       <r>   -11.4097    13.3211    95.3620 </r>
       <r>   -11.2780     8.4456    96.4741 </r>
       <r>   -11.1463     5.4998    97.1983 </r>
       <r>   -11.0147     7.8167    98.2276 </r>
       <r>   -10.8830    13.1164    99.9547 </r>
       <r>   -10.7513    16.7924   102.1659 </r>
       <r>   -10.6196     2.0770   102.4394 </r>
       <r>   -10.4879    20.6324   105.1562 </r>
       <r>   -10.3563     3.7810   105.6540 </r>
       <r>   -10.2246    24.7216   108.9093 </r>
       <r>   -10.0929    25.3297   112.2446 </r>
       <r>    -9.9612    18.3245   114.6575 </r>
       <r>    -9.8296    15.2122   116.6606 </r>
       <r>    -9.6979    17.0894   118.9109 </r>
       <r>    -9.5662    27.7956   122.5709 </r>
       <r>    -9.4345    20.6677   125.2924 </r>
       <r>    -9.3029    27.3762   128.8972 </r>
       <r>    -9.1712    23.3908   131.9772 </r>
       <r>    -9.0395    28.9785   135.7929 </r>
       <r>    -8.9078    19.8106   138.4015 </r>
       <r>    -8.7762    17.5494   140.7124 </r>
       <r>    -8.6445    23.5363   143.8115 </r>
       <r>    -8.5128    17.4214   146.1055 </r>
       <r>    -8.3811    16.2287   148.2425 </r>
       <r>    -8.2494    15.5375   150.2884 </r>
       <r>    -8.1178    15.9791   152.3925 </r>
       <r>    -7.9861    28.7392   156.1767 </r>
       <r>    -7.8544    16.0363   158.2883 </r>
       <r>    -7.7227    16.2806   160.4321 </r>
       <r>    -7.5911     8.2571   161.5193 </r>
       <r>    -7.4594     1.9925   161.7817 </r>
       <r>    -7.3277    18.0826   164.1628 </r>
       <r>    -7.1960    32.1327   168.3939 </r>
       <r>    -7.0644    15.4364   170.4265 </r>
       <r>    -6.9327     4.5978   171.0319 </r>
       <r>    -6.8010    19.1138   173.5488 </r>
       <r>    -6.6693    12.8460   175.2403 </r>
       <r>    -6.5377    15.9504   177.3406 </r>
       <r>    -6.4060     7.0282   178.2660 </r>
       <r>    -6.2743    12.5017   179.9122 </r>
       <r>    -6.1426    15.3657   181.9355 </r>
       <r>    -6.0110    13.6719   183.7357 </r>
       <r>    -5.8793    20.3085   186.4099 </r>
       <r>    -5.7476     7.6760   187.4206 </r>
       <r>    -5.6159    13.7254   189.2279 </r>
       <r>    -5.4842     3.2498   189.6559 </r>
       <r>    -5.3526     7.8148   190.6849 </r>
       <r>    -5.2209     8.7391   191.8356 </r>
       <r>    -5.0892    11.6952   193.3756 </r>
       <r>    -4.9575    18.4788   195.8088 </r>
       <r>    -4.8259    15.0385   197.7890 </r>
       <r>    -4.6942     3.1962   198.2099 </r>
       <r>    -4.5625     0.0936   198.2222 </r>
       <r>    -4.4308     0.0000   198.2222 </r>
       <r>    -4.2992     2.9643   198.6126 </r>
       <r>    -4.1675    17.0284   200.8548 </r>
       <r>    -4.0358     5.3206   201.5554 </r>
       <r>    -3.9041     0.0013   201.5556 </r>
       <r>    -3.7725     0.3709   201.6044 </r>
       <r>    -3.6408     2.9832   201.9972 </r>
       <r>    -3.5091     0.2892   202.0353 </r>
       <r>    -3.3774     4.2680   202.5973 </r>
       <r>    -3.2457    12.3038   204.2174 </r>
       <r>    -3.1141    10.8205   205.6422 </r>
       <r>    -2.9824     2.7709   206.0071 </r>
       <r>    -2.8507     2.5433   206.3419 </r>
       <r>    -2.7190     9.1350   207.5448 </r>
       <r>    -2.5874     0.0815   207.5556 </r>
       <r>    -2.4557     0.0952   207.5681 </r>
       <r>    -2.3240     3.1710   207.9856 </r>
       <r>    -2.1923     2.8590   208.3621 </r>
       <r>    -2.0607     0.6254   208.4444 </r>
       <r>    -1.9290     0.0000   208.4444 </r>
       <r>    -1.7973     0.0000   208.4444 </r>
       <r>    -1.6656     0.2037   208.4713 </r>
       <r>    -1.5340     9.5366   209.7270 </r>
       <r>    -1.4023    12.4927   211.3720 </r>
       <r>    -1.2706     3.0815   211.7778 </r>
       <r>    -1.1389     0.0001   211.7778 </r>
       <r>    -1.0073     1.1398   211.9279 </r>
       <r>    -0.8756    11.0229   213.3793 </r>
       <r>    -0.7439    23.0648   216.4164 </r>
       <r>    -0.6122    18.2524   218.8198 </r>
       <r>    -0.4805     5.3350   219.5223 </r>
       <r>    -0.3489     0.2762   219.5587 </r>
       <r>    -0.2172     4.6295   220.1683 </r>
       <r>    -0.0855    11.2085   221.6442 </r>
       <r>     0.0462    10.4477   223.0199 </r>
       <r>     0.1778     0.8376   223.1302 </r>
       <r>     0.3095    15.9194   225.2264 </r>
       <r>     0.4412     7.8975   226.2663 </r>
       <r>     0.5729     3.1406   226.6799 </r>
       <r>     0.7045    11.1120   228.1430 </r>
       <r>     0.8362    16.7130   230.3437 </r>
       <r>     0.9679     6.3687   231.1823 </r>
       <r>     1.0996    10.8593   232.6123 </r>
       <r>     1.2312    15.0544   234.5946 </r>
       <r>     1.3629     8.3024   235.6878 </r>
       <r>     1.4946    14.9845   237.6609 </r>
       <r>     1.6263    22.9521   240.6832 </r>
       <r>     1.7580    15.5175   242.7264 </r>
       <r>     1.8896    27.5544   246.3547 </r>
       <r>     2.0213     8.3616   247.4557 </r>
       <r>     2.1530    16.1606   249.5837 </r>
       <r>     2.2847    26.0188   253.0098 </r>
       <r>     2.4163    28.7608   256.7969 </r>
       <r>     2.5480     7.5881   257.7960 </r>
       <r>     2.6797     6.1868   258.6107 </r>
       <r>     2.8114     9.1030   259.8094 </r>
       <r>     2.9430     5.1351   260.4855 </r>
       <r>     3.0747     9.1849   261.6950 </r>
       <r>     3.2064     2.7166   262.0527 </r>
       <r>     3.3381     4.6328   262.6627 </r>
       <r>     3.4697     0.0308   262.6668 </r>
       <r>     3.6014     3.1354   263.0796 </r>
       <r>     3.7331     3.6129   263.5554 </r>
       <r>     3.8648     0.0015   263.5556 </r>
       <r>     3.9964     0.0000   263.5556 </r>
       <r>     4.1281     0.2964   263.5946 </r>
       <r>     4.2598     3.0489   263.9960 </r>
       <r>     4.3915     0.0300   264.0000 </r>
       <r>     4.5232     0.0000   264.0000 </r>
       <r>     4.6548     0.0000   264.0000 </r>
       <r>     4.7865     0.0000   264.0000 </r>
       <r>     4.9182     0.0000   264.0000 </r>
       <r>     5.0499     0.0000   264.0000 </r>
       <r>     5.1815     0.0000   264.0000 </r>
       <r>     5.3132     0.0000   264.0000 </r>
       <r>     5.4449     0.0000   264.0000 </r>
       <r>     5.5766     0.0000   264.0000 </r>
       <r>     5.7082     0.0000   264.0000 </r>
       <r>     5.8399     0.0000   264.0000 </r>
       <r>     5.9716     0.0000   264.0000 </r>
      </set>
     </set>
    </array>
   </total>
  </dos>
 </calculation>
 <structure name="finalpos" >
  <crystal>
   <varray name="basis" >
    <v>      12.30000019       0.00000000       0.00000000 </v>
    <v>       6.15000080      10.65211222       0.00000000 </v>
    <v>       0.00000000       0.00000000      20.00000000 </v>
   </varray>
   <i name="volume">   2620.41964732 </i>
   <varray name="rec_basis" >
    <v>       0.08130081      -0.04693905       0.00000000 </v>
    <v>       0.00000000       0.09387809       0.00000000 </v>
    <v>       0.00000000       0.00000000       0.05000000 </v>
   </varray>
  </crystal>
  <varray name="positions" >
   <v>       0.00000000       0.00000000       0.41799748 </v>
   <v>       0.20000000       0.00000000       0.41799748 </v>
   <v>       0.40000000       0.00000000       0.41799748 </v>
   <v>       0.60000000       0.00000000       0.41799748 </v>
   <v>       0.80000000       0.00000000       0.41799748 </v>
   <v>       0.00000000       0.20000000       0.41799748 </v>
   <v>       0.20000000       0.20000000       0.41799748 </v>
   <v>       0.40000000       0.20081301       0.41799748 </v>
   <v>       0.60000000       0.20000000       0.41799748 </v>
   <v>       0.80000000       0.20000000       0.41799748 </v>
   <v>       0.00000000       0.40000000       0.41799748 </v>
   <v>       0.20000000       0.40000000       0.41799748 </v>
   <v>       0.40000000       0.40000000       0.41799748 </v>
   <v>       0.60000000       0.40000000       0.41799748 </v>
   <v>       0.80000000       0.40000000       0.41799748 </v>
   <v>       0.00000000       0.60000000       0.41799748 </v>
   <v>       0.20000000       0.60000000       0.41799748 </v>
   <v>       0.40000000       0.60000000       0.41799748 </v>
   <v>       0.60000000       0.60000000       0.41799748 </v>
   <v>       0.80000000       0.60000000       0.41799748 </v>
   <v>       0.00000000       0.80000000       0.41799748 </v>
   <v>       0.20000000       0.80000000       0.41799748 </v>
   <v>       0.40000000       0.80000000       0.41799748 </v>
   <v>       0.60000000       0.80000000       0.41799748 </v>
   <v>       0.80000000       0.80000000       0.41799748 </v>
   <v>       0.06666667       0.06666660       0.41800609 </v>
   <v>       0.26666667       0.06666660       0.41800609 </v>
   <v>       0.46666667       0.06666660       0.41800609 </v>
   <v>       0.66666667       0.06666660       0.41800609 </v>
   <v>       0.86666667       0.06666660       0.41800609 </v>
   <v>       0.06666667       0.26666660       0.41800609 </v>
   <v>       0.26666667       0.26666660       0.41800609 </v>
   <v>       0.46666667       0.26666660       0.41800609 </v>
   <v>       0.66666667       0.26666660       0.41800609 </v>
   <v>       0.86666667       0.26666660       0.41800609 </v>
   <v>       0.06666667       0.46666660       0.41800609 </v>
   <v>       0.26666667       0.46666660       0.41800609 </v>
   <v>       0.46666667       0.46666660       0.41800609 </v>
   <v>       0.66666667       0.46666660       0.41800609 </v>
   <v>       0.86666667       0.46666660       0.41800609 </v>
   <v>       0.06666667       0.66666660       0.41800609 </v>
   <v>       0.26666667       0.66666660       0.41800609 </v>
   <v>       0.46666667       0.66666660       0.41800609 </v>
   <v>       0.66666667       0.66666660       0.41800609 </v>
   <v>       0.86666667       0.66666660       0.41800609 </v>
   <v>       0.06666667       0.86666660       0.41800609 </v>
   <v>       0.26666667       0.86666660       0.41800609 </v>
   <v>       0.46666667       0.86666660       0.41800609 </v>
   <v>       0.66666667       0.86666660       0.41800609 </v>
   <v>       0.86666667       0.86666660       0.41800609 </v>
   <v>       0.40000000       0.40000000       0.46800609 </v>
  </varray>
  <varray name="velocities" >
   <v>       0.00000000       0.00000000       0.00000000 </v>
   <v>       0.00000000       0.00000000       0.00000000 </v>
   <v>       0.00000000       0.00000000       0.00000000 </v>
   <v>       0.00000000       0.00000000       0.00000000 </v>
   <v>       0.00000000       0.00000000       0.00000000 </v>
   <v>       0.00000000       0.00000000       0.00000000 </v>
   <v>       0.00000000       0.00000000       0.00000000 </v>
   <v>       0.00000000       0.00000000       0.00000000 </v>
   <v>       0.00000000       0.00000000       0.00000000 </v>
   <v>       0.00000000       0.00000000       0.00000000 </v>
   <v>       0.00000000       0.00000000       0.00000000 </v>
   <v>       0.00000000       0.00000000       0.00000000 </v>
   <v>       0.00000000       0.00000000       0.00000000 </v>
   <v>       0.00000000       0.00000000       0.00000000 </v>
   <v>       0.00000000       0.00000000       0.00000000 </v>
   <v>       0.00000000       0.00000000       0.00000000 </v>
   <v>       0.00000000       0.00000000       0.00000000 </v>
   <v>       0.00000000       0.00000000       0.00000000 </v>
   <v>       0.00000000       0.00000000       0.00000000 </v>
   <v>       0.00000000       0.00000000       0.00000000 </v>
   <v>       0.00000000       0.00000000       0.00000000 </v>
   <v>       0.00000000       0.00000000       0.00000000 </v>
   <v>       0.00000000       0.00000000       0.00000000 </v>
   <v>       0.00000000       0.00000000       0.00000000 </v>
   <v>       0.00000000       0.00000000       0.00000000 </v>
   <v>       0.00000000       0.00000000       0.00000000 </v>
   <v>       0.00000000       0.00000000       0.00000000 </v>
   <v>       0.00000000       0.00000000       0.00000000 </v>
   <v>       0.00000000       0.00000000       0.00000000 </v>
   <v>       0.00000000       0.00000000       0.00000000 </v>
   <v>       0.00000000       0.00000000       0.00000000 </v>
   <v>       0.00000000       0.00000000       0.00000000 </v>
   <v>       0.00000000       0.00000000       0.00000000 </v>
   <v>       0.00000000       0.00000000       0.00000000 </v>
   <v>       0.00000000       0.00000000       0.00000000 </v>
   <v>       0.00000000       0.00000000       0.00000000 </v>
   <v>       0.00000000       0.00000000       0.00000000 </v>
   <v>       0.00000000       0.00000000       0.00000000 </v>
   <v>       0.00000000       0.00000000       0.00000000 </v>
   <v>       0.00000000       0.00000000       0.00000000 </v>
   <v>       0.00000000       0.00000000       0.00000000 </v>
   <v>       0.00000000       0.00000000       0.00000000 </v>
   <v>       0.00000000       0.00000000       0.00000000 </v>
   <v>       0.00000000       0.00000000       0.00000000 </v>
   <v>       0.00000000       0.00000000       0.00000000 </v>
   <v>       0.00000000       0.00000000       0.00000000 </v>
   <v>       0.00000000       0.00000000       0.00000000 </v>
   <v>       0.00000000       0.00000000       0.00000000 </v>
   <v>       0.00000000       0.00000000       0.00000000 </v>
   <v>       0.00000000       0.00000000       0.00000000 </v>
   <v>       0.00000000       0.00000000       0.00000000 </v>
  </varray>
 </structure>
</modeling>
