                                                                                     
                             WELCOME TO ABACUS v3.0                                  
                                                                                     
               'Atomic-orbital Based Ab-initio Computation at UStc'                  
                                                                                     
                     Website: http://abacus.ustc.edu.cn/                             
                                                                                     
    Version: Parallel, in development
    Processor Number is 16
    Start Time is Thu Nov 14 19:14:24 2024
                                                                                     
 ------------------------------------------------------------------------------------

 READING GENERAL INFORMATION
                           global_out_dir = OUT.ABACUS/
                           global_in_card = INPUT
                               pseudo_dir = 
                              orbital_dir = 
                                    DRANK = 1
                                    DSIZE = 16
                                   DCOLOR = 1
                                    GRANK = 1
                                    GSIZE = 1
 The esolver type has been set to : ksdft_lcao




 >>>>>>>>>>>>>>>>>>>>>>>>>>>>>>>>>>>>>>>>>>>>>>>>>>>>>>>>>>>>>>>>>>>>>>
 |                                                                    |
 | Reading atom information in unitcell:                              |
 | From the input file and the structure file we know the number of   |
 | different elments in this unitcell, then we list the detail        |
 | information for each element, especially the zeta and polar atomic |
 | orbital number for each element. The total atom number is counted. |
 | We calculate the nearest atom distance for each atom and show the  |
 | Cartesian and Direct coordinates for each atom. We list the file   |
 | address for atomic orbitals. The volume and the lattice vectors    |
 | in real and reciprocal space is also shown.                        |
 |                                                                    |
 <<<<<<<<<<<<<<<<<<<<<<<<<<<<<<<<<<<<<<<<<<<<<<<<<<<<<<<<<<<<<<<<<<<<<<




 READING UNITCELL INFORMATION
                                    ntype = 2
                 atom label for species 1 = C
                 atom label for species 2 = O
                  lattice constant (Bohr) = 1.88973
              lattice constant (Angstrom) = 1

 READING ATOM TYPE 1
                               atom label = C
                      L=0, number of zeta = 2
                      L=1, number of zeta = 2
                      L=2, number of zeta = 1
             number of atom for this type = 49
                      start magnetization = FALSE
                      start magnetization = FALSE
                      start magnetization = FALSE
                      start magnetization = FALSE
                      start magnetization = FALSE
                      start magnetization = FALSE
                      start magnetization = FALSE
                      start magnetization = FALSE
                      start magnetization = FALSE
                      start magnetization = FALSE
                      start magnetization = FALSE
                      start magnetization = FALSE
                      start magnetization = FALSE
                      start magnetization = FALSE
                      start magnetization = FALSE
                      start magnetization = FALSE
                      start magnetization = FALSE
                      start magnetization = FALSE
                      start magnetization = FALSE
                      start magnetization = FALSE
                      start magnetization = FALSE
                      start magnetization = FALSE
                      start magnetization = FALSE
                      start magnetization = FALSE
                      start magnetization = FALSE
                      start magnetization = FALSE
                      start magnetization = FALSE
                      start magnetization = FALSE
                      start magnetization = FALSE
                      start magnetization = FALSE
                      start magnetization = FALSE
                      start magnetization = FALSE
                      start magnetization = FALSE
                      start magnetization = FALSE
                      start magnetization = FALSE
                      start magnetization = FALSE
                      start magnetization = FALSE
                      start magnetization = FALSE
                      start magnetization = FALSE
                      start magnetization = FALSE
                      start magnetization = FALSE
                      start magnetization = FALSE
                      start magnetization = FALSE
                      start magnetization = FALSE
                      start magnetization = FALSE
                      start magnetization = FALSE
                      start magnetization = FALSE
                      start magnetization = FALSE
                      start magnetization = FALSE

 READING ATOM TYPE 2
                               atom label = O
                      L=0, number of zeta = 2
                      L=1, number of zeta = 2
                      L=2, number of zeta = 1
             number of atom for this type = 1
                      start magnetization = FALSE

                        TOTAL ATOM NUMBER = 50

 DIRECT COORDINATES
         atom                   x                   y                   z                 mag                  vx                  vy                  vz
      taud_C1            0.133333            0.133333                 0.5                   0                   0                   0                   0
      taud_C2            0.333333            0.133333                 0.5                   0                   0                   0                   0
      taud_C3            0.533333            0.133333                 0.5                   0                   0                   0                   0
      taud_C4            0.733333            0.133333                 0.5                   0                   0                   0                   0
      taud_C5            0.933333            0.133333                 0.5                   0                   0                   0                   0
      taud_C6            0.133333            0.333333                 0.5                   0                   0                   0                   0
      taud_C7            0.333333            0.333333                 0.5                   0                   0                   0                   0
      taud_C8            0.533333            0.333333                 0.5                   0                   0                   0                   0
      taud_C9            0.733333            0.333333                 0.5                   0                   0                   0                   0
     taud_C10            0.933333            0.333333                 0.5                   0                   0                   0                   0
     taud_C11            0.133333            0.533333                 0.5                   0                   0                   0                   0
     taud_C12            0.333333            0.533333                 0.5                   0                   0                   0                   0
     taud_C13            0.533333            0.533333                 0.5                   0                   0                   0                   0
     taud_C14            0.733333            0.533333                 0.5                   0                   0                   0                   0
     taud_C15            0.933333            0.533333                 0.5                   0                   0                   0                   0
     taud_C16            0.133333            0.733333                 0.5                   0                   0                   0                   0
     taud_C17            0.333333            0.733333                 0.5                   0                   0                   0                   0
     taud_C18            0.533333            0.733333                 0.5                   0                   0                   0                   0
     taud_C19            0.733333            0.733333                 0.5                   0                   0                   0                   0
     taud_C20            0.933333            0.733333                 0.5                   0                   0                   0                   0
     taud_C21            0.133333            0.933333                 0.5                   0                   0                   0                   0
     taud_C22            0.333333            0.933333                 0.5                   0                   0                   0                   0
     taud_C23            0.533333            0.933333                 0.5                   0                   0                   0                   0
     taud_C24            0.733333            0.933333                 0.5                   0                   0                   0                   0
     taud_C25            0.933333            0.933333                 0.5                   0                   0                   0                   0
     taud_C26           0.0666667           0.0666667                 0.5                   0                   0                   0                   0
     taud_C27            0.266667           0.0666667                 0.5                   0                   0                   0                   0
     taud_C28            0.466667           0.0666667                 0.5                   0                   0                   0                   0
     taud_C29            0.666667           0.0666667                 0.5                   0                   0                   0                   0
     taud_C30            0.866667           0.0666667                 0.5                   0                   0                   0                   0
     taud_C31           0.0666667            0.266667                 0.5                   0                   0                   0                   0
     taud_C32            0.266667            0.266667                 0.5                   0                   0                   0                   0
     taud_C33            0.466667            0.266667                 0.5                   0                   0                   0                   0
     taud_C34            0.666667            0.266667                 0.5                   0                   0                   0                   0
     taud_C35            0.866667            0.266667                 0.5                   0                   0                   0                   0
     taud_C36           0.0666667            0.466667                 0.5                   0                   0                   0                   0
     taud_C37            0.266667            0.466667                 0.5                   0                   0                   0                   0
     taud_C38            0.666667            0.466667                 0.5                   0                   0                   0                   0
     taud_C39            0.866667            0.466667                 0.5                   0                   0                   0                   0
     taud_C40           0.0666667            0.666667                 0.5                   0                   0                   0                   0
     taud_C41            0.266667            0.666667                 0.5                   0                   0                   0                   0
     taud_C42            0.466667            0.666667                 0.5                   0                   0                   0                   0
     taud_C43            0.666667            0.666667                 0.5                   0                   0                   0                   0
     taud_C44            0.866667            0.666667                 0.5                   0                   0                   0                   0
     taud_C45           0.0666667            0.866667                 0.5                   0                   0                   0                   0
     taud_C46            0.266667            0.866667                 0.5                   0                   0                   0                   0
     taud_C47            0.466667            0.866667                 0.5                   0                   0                   0                   0
     taud_C48            0.666667            0.866667                 0.5                   0                   0                   0                   0
     taud_C49            0.866667            0.866667                 0.5                   0                   0                   0                   0
      taud_O1            0.466667            0.466667                 0.5                   0                   0                   0                   0


 READING ORBITAL FILE NAMES FOR LCAO
 orbital file: C_gga_6au_60Ry_2s2p1d.orb
 orbital file: O_gga_6au_60Ry_2s2p1d.orb

                          Volume (Bohr^3) = 13754.8
                             Volume (A^3) = 2038.24

 Lattice vectors: (Cartesian coordinate: in unit of a_0)
             +12.3191                  +0                  +0
             +6.17281            +10.6763                  +0
                   +0                  +0            +15.4974
 Reciprocal vectors: (Cartesian coordinate: in unit of 2 pi/a_0)
           +0.0811751          -0.0469338                  +0
                   -0          +0.0936657                  -0
                   +0                  -0          +0.0645268




 >>>>>>>>>>>>>>>>>>>>>>>>>>>>>>>>>>>>>>>>>>>>>>>>>>>>>>>>>>>>>>>>>>>>>>
 |                                                                    |
 | Reading pseudopotentials files:                                    |
 | The pseudopotential file is in UPF format. The 'NC' indicates that |
 | the type of pseudopotential is 'norm conserving'. Functional of    |
 | exchange and correlation is decided by 4 given parameters in UPF   |
 | file.  We also read in the 'core correction' if there exists.      |
 | Also we can read the valence electrons number and the maximal      |
 | angular momentum used in this pseudopotential. We also read in the |
 | trail wave function, trail atomic density and local-pseudopotential|
 | on logrithmic grid. The non-local pseudopotential projector is also|
 | read in if there is any.                                           |
 |                                                                    |
 <<<<<<<<<<<<<<<<<<<<<<<<<<<<<<<<<<<<<<<<<<<<<<<<<<<<<<<<<<<<<<<<<<<<<<




                PAO radial cut off (Bohr) = 15

 Read in pseudopotential file is ./C_ONCV_PBE-1.2.upf
                     pseudopotential type = NC
          exchange-correlation functional = PBE
                 nonlocal core correction = 0
                        valence electrons = 4
                                     lmax = 1
                           number of zeta = 0
                     number of projectors = 4
                           L of projector = 0
                           L of projector = 0
                           L of projector = 1
                           L of projector = 1
                PAO radial cut off (Bohr) = 15

 Read in pseudopotential file is ./O_ONCV_PBE-1.2.upf
                     pseudopotential type = NC
          exchange-correlation functional = PBE
                 nonlocal core correction = 0
                        valence electrons = 6
                                     lmax = 1
                           number of zeta = 0
                     number of projectors = 4
                           L of projector = 0
                           L of projector = 0
                           L of projector = 1
                           L of projector = 1
     initial pseudo atomic orbital number = 0
                                   NLOCAL = 650




 >>>>>>>>>>>>>>>>>>>>>>>>>>>>>>>>>>>>>>>>>>>>>>>>>>>>>>>>>>>>>>>>>>>>>>
 |                                                                    |
 | Setup plane waves of charge/potential:                             |
 | Use the energy cutoff and the lattice vectors to generate the      |
 | dimensions of FFT grid. The number of FFT grid on each processor   |
 | is 'nrxx'. The number of plane wave basis in reciprocal space is   |
 | different for charege/potential and wave functions. We also set    |
 | the 'sticks' for the parallel of FFT. The number of plane waves    |
 | is 'npw' in each processor.                                        |
 <<<<<<<<<<<<<<<<<<<<<<<<<<<<<<<<<<<<<<<<<<<<<<<<<<<<<<<<<<<<<<<<<<<<<<





 SETUP THE PLANE WAVE BASIS
 energy cutoff for charge/potential (unit:Ry) = 240
          [fft grid for charge/potential] = 120, 120, 150
                      [fft grid division] = 2, 2, 2
      [big fft grid for charge/potential] = 60, 60, 75
                                     nbxx = 18000
                                     nrxx = 144000

 SETUP PLANE WAVES FOR CHARGE/POTENTIAL
                    number of plane waves = 863891
                         number of sticks = 8975

 PARALLEL PW FOR CHARGE/POTENTIAL
     PROC   COLUMNS(POT)             PW
        1            560          53992
        2            560          53992
        3            561          53995
        4            561          53995
        5            561          53991
        6            561          53991
        7            561          53995
        8            561          53995
        9            561          53993
       10            561          53993
       11            561          53993
       12            561          53993
       13            561          53993
       14            561          53993
       15            561          53995
       16            562          53992
 --------------- sum -------------------
       16           8975         863891
                            number of |g| = 26423
                                  max |g| = 21.7092
                                  min |g| = 0.00879218

 SETUP THE ELECTRONS NUMBER
             electron number of element C = 4
       total electron number of element C = 196
             electron number of element O = 6
       total electron number of element O = 6
            AUTOSET number of electrons:  = 202
 DONE : SETUP UNITCELL Time : 0.0956479 (SEC)





 >>>>>>>>>>>>>>>>>>>>>>>>>>>>>>>>>>>>>>>>>>>>>>>>>>>>>>>>>>>>>>>>>>>>>>
 |                                                                    |
 | Setup K-points                                                     |
 | We setup the k-points according to input parameters.               |
 | The reduced k-points are set according to symmetry operations.     |
 | We treat the spin as another set of k-points.                      |
 |                                                                    |
 <<<<<<<<<<<<<<<<<<<<<<<<<<<<<<<<<<<<<<<<<<<<<<<<<<<<<<<<<<<<<<<<<<<<<<





 SETUP K-POINTS
                                    nspin = 1
                                   nkstot = 201

  KPOINTS            DIRECT_X            DIRECT_Y            DIRECT_Z              WEIGHT
        1                 2.5                 2.5                   0                   1
        2               2.475               2.475                   0                   1
        3                2.45                2.45                   0                   1
        4               2.425               2.425                   0                   1
        5                 2.4                 2.4                   0                   1
        6               2.375               2.375                   0                   1
        7                2.35                2.35                   0                   1
        8               2.325               2.325                   0                   1
        9                 2.3                 2.3                   0                   1
       10               2.275               2.275                   0                   1
       11                2.25                2.25                   0                   1
       12               2.225               2.225                   0                   1
       13                 2.2                 2.2                   0                   1
       14               2.175               2.175                   0                   1
       15                2.15                2.15                   0                   1
       16               2.125               2.125                   0                   1
       17                 2.1                 2.1                   0                   1
       18               2.075               2.075                   0                   1
       19                2.05                2.05                   0                   1
       20               2.025               2.025                   0                   1
       21                   2                   2                   0                   1
       22               1.975               1.975                   0                   1
       23                1.95                1.95                   0                   1
       24               1.925               1.925                   0                   1
       25                 1.9                 1.9                   0                   1
       26               1.875               1.875                   0                   1
       27                1.85                1.85                   0                   1
       28               1.825               1.825                   0                   1
       29                 1.8                 1.8                   0                   1
       30               1.775               1.775                   0                   1
       31                1.75                1.75                   0                   1
       32               1.725               1.725                   0                   1
       33                 1.7                 1.7                   0                   1
       34               1.675               1.675                   0                   1
       35                1.65                1.65                   0                   1
       36               1.625               1.625                   0                   1
       37                 1.6                 1.6                   0                   1
       38               1.575               1.575                   0                   1
       39                1.55                1.55                   0                   1
       40               1.525               1.525                   0                   1
       41                 1.5                 1.5                   0                   1
       42               1.475               1.475                   0                   1
       43                1.45                1.45                   0                   1
       44               1.425               1.425                   0                   1
       45                 1.4                 1.4                   0                   1
       46               1.375               1.375                   0                   1
       47                1.35                1.35                   0                   1
       48               1.325               1.325                   0                   1
       49                 1.3                 1.3                   0                   1
       50               1.275               1.275                   0                   1
       51                1.25                1.25                   0                   1
       52               1.225               1.225                   0                   1
       53                 1.2                 1.2                   0                   1
       54               1.175               1.175                   0                   1
       55                1.15                1.15                   0                   1
       56               1.125               1.125                   0                   1
       57                 1.1                 1.1                   0                   1
       58               1.075               1.075                   0                   1
       59                1.05                1.05                   0                   1
       60               1.025               1.025                   0                   1
       61                   1                   1                   0                   1
       62               0.975               0.975                   0                   1
       63                0.95                0.95                   0                   1
       64               0.925               0.925                   0                   1
       65                 0.9                 0.9                   0                   1
       66               0.875               0.875                   0                   1
       67                0.85                0.85                   0                   1
       68               0.825               0.825                   0                   1
       69                 0.8                 0.8                   0                   1
       70               0.775               0.775                   0                   1
       71                0.75                0.75                   0                   1
       72               0.725               0.725                   0                   1
       73                 0.7                 0.7                   0                   1
       74               0.675               0.675                   0                   1
       75                0.65                0.65                   0                   1
       76               0.625               0.625                   0                   1
       77                 0.6                 0.6                   0                   1
       78               0.575               0.575                   0                   1
       79                0.55                0.55                   0                   1
       80               0.525               0.525                   0                   1
       81                 0.5                 0.5                   0                   1
       82               0.475               0.475                   0                   1
       83                0.45                0.45                   0                   1
       84               0.425               0.425                   0                   1
       85                 0.4                 0.4                   0                   1
       86               0.375               0.375                   0                   1
       87                0.35                0.35                   0                   1
       88               0.325               0.325                   0                   1
       89                 0.3                 0.3                   0                   1
       90               0.275               0.275                   0                   1
       91                0.25                0.25                   0                   1
       92               0.225               0.225                   0                   1
       93                 0.2                 0.2                   0                   1
       94               0.175               0.175                   0                   1
       95                0.15                0.15                   0                   1
       96               0.125               0.125                   0                   1
       97                 0.1                 0.1                   0                   1
       98               0.075               0.075                   0                   1
       99                0.05                0.05                   0                   1
      100               0.025               0.025                   0                   1
      101                   0                   0                   0                   1
      102           0.0166667           0.0333333                   0                   1
      103           0.0333333           0.0666667                   0                   1
      104                0.05                 0.1                   0                   1
      105           0.0666667            0.133333                   0                   1
      106           0.0833333            0.166667                   0                   1
      107                 0.1                 0.2                   0                   1
      108            0.116667            0.233333                   0                   1
      109            0.133333            0.266667                   0                   1
      110                0.15                 0.3                   0                   1
      111            0.166667            0.333333                   0                   1
      112            0.183333            0.366667                   0                   1
      113                 0.2                 0.4                   0                   1
      114            0.216667            0.433333                   0                   1
      115            0.233333            0.466667                   0                   1
      116                0.25                 0.5                   0                   1
      117            0.266667            0.533333                   0                   1
      118            0.283333            0.566667                   0                   1
      119                 0.3                 0.6                   0                   1
      120            0.316667            0.633333                   0                   1
      121            0.333333            0.666667                   0                   1
      122                0.35                 0.7                   0                   1
      123            0.366667            0.733333                   0                   1
      124            0.383333            0.766667                   0                   1
      125                 0.4                 0.8                   0                   1
      126            0.416667            0.833333                   0                   1
      127            0.433333            0.866667                   0                   1
      128                0.45                 0.9                   0                   1
      129            0.466667            0.933333                   0                   1
      130            0.483333            0.966667                   0                   1
      131                 0.5                   1                   0                   1
      132            0.516667             1.03333                   0                   1
      133            0.533333             1.06667                   0                   1
      134                0.55                 1.1                   0                   1
      135            0.566667             1.13333                   0                   1
      136            0.583333             1.16667                   0                   1
      137                 0.6                 1.2                   0                   1
      138            0.616667             1.23333                   0                   1
      139            0.633333             1.26667                   0                   1
      140                0.65                 1.3                   0                   1
      141            0.666667             1.33333                   0                   1
      142            0.683333             1.36667                   0                   1
      143                 0.7                 1.4                   0                   1
      144            0.716667             1.43333                   0                   1
      145            0.733333             1.46667                   0                   1
      146                0.75                 1.5                   0                   1
      147            0.766667             1.53333                   0                   1
      148            0.783333             1.56667                   0                   1
      149                 0.8                 1.6                   0                   1
      150            0.816667             1.63333                   0                   1
      151            0.833333             1.66667                   0                   1
      152                0.85                 1.7                   0                   1
      153            0.866667             1.73333                   0                   1
      154            0.883333             1.76667                   0                   1
      155                 0.9                 1.8                   0                   1
      156            0.916667             1.83333                   0                   1
      157            0.933333             1.86667                   0                   1
      158                0.95                 1.9                   0                   1
      159            0.966667             1.93333                   0                   1
      160            0.983333             1.96667                   0                   1
      161                   1                   2                   0                   1
      162             1.01667             2.03333                   0                   1
      163             1.03333             2.06667                   0                   1
      164                1.05                 2.1                   0                   1
      165             1.06667             2.13333                   0                   1
      166             1.08333             2.16667                   0                   1
      167                 1.1                 2.2                   0                   1
      168             1.11667             2.23333                   0                   1
      169             1.13333             2.26667                   0                   1
      170                1.15                 2.3                   0                   1
      171             1.16667             2.33333                   0                   1
      172             1.18333             2.36667                   0                   1
      173                 1.2                 2.4                   0                   1
      174             1.21667             2.43333                   0                   1
      175             1.23333             2.46667                   0                   1
      176                1.25                 2.5                   0                   1
      177             1.26667             2.53333                   0                   1
      178             1.28333             2.56667                   0                   1
      179                 1.3                 2.6                   0                   1
      180             1.31667             2.63333                   0                   1
      181             1.33333             2.66667                   0                   1
      182                1.35                 2.7                   0                   1
      183             1.36667             2.73333                   0                   1
      184             1.38333             2.76667                   0                   1
      185                 1.4                 2.8                   0                   1
      186             1.41667             2.83333                   0                   1
      187             1.43333             2.86667                   0                   1
      188                1.45                 2.9                   0                   1
      189             1.46667             2.93333                   0                   1
      190             1.48333             2.96667                   0                   1
      191                 1.5                   3                   0                   1
      192             1.51667             3.03333                   0                   1
      193             1.53333             3.06667                   0                   1
      194                1.55                 3.1                   0                   1
      195             1.56667             3.13333                   0                   1
      196             1.58333             3.16667                   0                   1
      197                 1.6                 3.2                   0                   1
      198             1.61667             3.23333                   0                   1
      199             1.63333             3.26667                   0                   1
      200                1.65                 3.3                   0                   1
      201             1.66667             3.33333                   0                   1

           k-point number in this process = 201
       minimum distributed K point number = 201

  KPOINTS         CARTESIAN_X         CARTESIAN_Y         CARTESIAN_Z              WEIGHT
        1            0.202938             0.11683                   0          0.00995025
        2            0.200908            0.115661                   0          0.00995025
        3            0.198879            0.114493                   0          0.00995025
        4             0.19685            0.113325                   0          0.00995025
        5             0.19482            0.112156                   0          0.00995025
        6            0.192791            0.110988                   0          0.00995025
        7            0.190761             0.10982                   0          0.00995025
        8            0.188732            0.108652                   0          0.00995025
        9            0.186703            0.107483                   0          0.00995025
       10            0.184673            0.106315                   0          0.00995025
       11            0.182644            0.105147                   0          0.00995025
       12            0.180615            0.103978                   0          0.00995025
       13            0.178585             0.10281                   0          0.00995025
       14            0.176556            0.101642                   0          0.00995025
       15            0.174526            0.100473                   0          0.00995025
       16            0.172497           0.0993052                   0          0.00995025
       17            0.170468           0.0981369                   0          0.00995025
       18            0.168438           0.0969686                   0          0.00995025
       19            0.166409           0.0958003                   0          0.00995025
       20             0.16438            0.094632                   0          0.00995025
       21             0.16235           0.0934637                   0          0.00995025
       22            0.160321           0.0922954                   0          0.00995025
       23            0.158291           0.0911271                   0          0.00995025
       24            0.156262           0.0899588                   0          0.00995025
       25            0.154233           0.0887905                   0          0.00995025
       26            0.152203           0.0876222                   0          0.00995025
       27            0.150174           0.0864539                   0          0.00995025
       28            0.148145           0.0852856                   0          0.00995025
       29            0.146115           0.0841173                   0          0.00995025
       30            0.144086            0.082949                   0          0.00995025
       31            0.142056           0.0817807                   0          0.00995025
       32            0.140027           0.0806124                   0          0.00995025
       33            0.137998           0.0794441                   0          0.00995025
       34            0.135968           0.0782758                   0          0.00995025
       35            0.133939           0.0771075                   0          0.00995025
       36            0.131909           0.0759392                   0          0.00995025
       37             0.12988            0.074771                   0          0.00995025
       38            0.127851           0.0736027                   0          0.00995025
       39            0.125821           0.0724344                   0          0.00995025
       40            0.123792           0.0712661                   0          0.00995025
       41            0.121763           0.0700978                   0          0.00995025
       42            0.119733           0.0689295                   0          0.00995025
       43            0.117704           0.0677612                   0          0.00995025
       44            0.115674           0.0665929                   0          0.00995025
       45            0.113645           0.0654246                   0          0.00995025
       46            0.111616           0.0642563                   0          0.00995025
       47            0.109586            0.063088                   0          0.00995025
       48            0.107557           0.0619197                   0          0.00995025
       49            0.105528           0.0607514                   0          0.00995025
       50            0.103498           0.0595831                   0          0.00995025
       51            0.101469           0.0584148                   0          0.00995025
       52           0.0994395           0.0572465                   0          0.00995025
       53           0.0974101           0.0560782                   0          0.00995025
       54           0.0953807           0.0549099                   0          0.00995025
       55           0.0933513           0.0537416                   0          0.00995025
       56            0.091322           0.0525733                   0          0.00995025
       57           0.0892926            0.051405                   0          0.00995025
       58           0.0872632           0.0502367                   0          0.00995025
       59           0.0852338           0.0490684                   0          0.00995025
       60           0.0832045           0.0479001                   0          0.00995025
       61           0.0811751           0.0467318                   0          0.00995025
       62           0.0791457           0.0455635                   0          0.00995025
       63           0.0771163           0.0443953                   0          0.00995025
       64           0.0750869            0.043227                   0          0.00995025
       65           0.0730576           0.0420587                   0          0.00995025
       66           0.0710282           0.0408904                   0          0.00995025
       67           0.0689988           0.0397221                   0          0.00995025
       68           0.0669694           0.0385538                   0          0.00995025
       69           0.0649401           0.0373855                   0          0.00995025
       70           0.0629107           0.0362172                   0          0.00995025
       71           0.0608813           0.0350489                   0          0.00995025
       72           0.0588519           0.0338806                   0          0.00995025
       73           0.0568226           0.0327123                   0          0.00995025
       74           0.0547932            0.031544                   0          0.00995025
       75           0.0527638           0.0303757                   0          0.00995025
       76           0.0507344           0.0292074                   0          0.00995025
       77            0.048705           0.0280391                   0          0.00995025
       78           0.0466757           0.0268708                   0          0.00995025
       79           0.0446463           0.0257025                   0          0.00995025
       80           0.0426169           0.0245342                   0          0.00995025
       81           0.0405875           0.0233659                   0          0.00995025
       82           0.0385582           0.0221976                   0          0.00995025
       83           0.0365288           0.0210293                   0          0.00995025
       84           0.0344994            0.019861                   0          0.00995025
       85             0.03247           0.0186927                   0          0.00995025
       86           0.0304407           0.0175244                   0          0.00995025
       87           0.0284113           0.0163561                   0          0.00995025
       88           0.0263819           0.0151878                   0          0.00995025
       89           0.0243525           0.0140196                   0          0.00995025
       90           0.0223231           0.0128513                   0          0.00995025
       91           0.0202938            0.011683                   0          0.00995025
       92           0.0182644           0.0105147                   0          0.00995025
       93            0.016235          0.00934637                   0          0.00995025
       94           0.0142056          0.00817807                   0          0.00995025
       95           0.0121763          0.00700978                   0          0.00995025
       96           0.0101469          0.00584148                   0          0.00995025
       97          0.00811751          0.00467318                   0          0.00995025
       98          0.00608813          0.00350489                   0          0.00995025
       99          0.00405875          0.00233659                   0          0.00995025
      100          0.00202938           0.0011683                   0          0.00995025
      101                   0                   0                   0          0.00995025
      102          0.00135292          0.00233996                   0          0.00995025
      103          0.00270584          0.00467992                   0          0.00995025
      104          0.00405875          0.00701988                   0          0.00995025
      105          0.00541167          0.00935983                   0          0.00995025
      106          0.00676459           0.0116998                   0          0.00995025
      107          0.00811751           0.0140398                   0          0.00995025
      108          0.00947043           0.0163797                   0          0.00995025
      109           0.0108233           0.0187197                   0          0.00995025
      110           0.0121763           0.0210596                   0          0.00995025
      111           0.0135292           0.0233996                   0          0.00995025
      112           0.0148821           0.0257395                   0          0.00995025
      113            0.016235           0.0280795                   0          0.00995025
      114           0.0175879           0.0304195                   0          0.00995025
      115           0.0189409           0.0327594                   0          0.00995025
      116           0.0202938           0.0350994                   0          0.00995025
      117           0.0216467           0.0374393                   0          0.00995025
      118           0.0229996           0.0397793                   0          0.00995025
      119           0.0243525           0.0421193                   0          0.00995025
      120           0.0257054           0.0444592                   0          0.00995025
      121           0.0270584           0.0467992                   0          0.00995025
      122           0.0284113           0.0491391                   0          0.00995025
      123           0.0297642           0.0514791                   0          0.00995025
      124           0.0311171           0.0538191                   0          0.00995025
      125             0.03247            0.056159                   0          0.00995025
      126           0.0338229            0.058499                   0          0.00995025
      127           0.0351759           0.0608389                   0          0.00995025
      128           0.0365288           0.0631789                   0          0.00995025
      129           0.0378817           0.0655188                   0          0.00995025
      130           0.0392346           0.0678588                   0          0.00995025
      131           0.0405875           0.0701988                   0          0.00995025
      132           0.0419405           0.0725387                   0          0.00995025
      133           0.0432934           0.0748787                   0          0.00995025
      134           0.0446463           0.0772186                   0          0.00995025
      135           0.0459992           0.0795586                   0          0.00995025
      136           0.0473521           0.0818986                   0          0.00995025
      137            0.048705           0.0842385                   0          0.00995025
      138            0.050058           0.0865785                   0          0.00995025
      139           0.0514109           0.0889184                   0          0.00995025
      140           0.0527638           0.0912584                   0          0.00995025
      141           0.0541167           0.0935983                   0          0.00995025
      142           0.0554696           0.0959383                   0          0.00995025
      143           0.0568226           0.0982783                   0          0.00995025
      144           0.0581755            0.100618                   0          0.00995025
      145           0.0595284            0.102958                   0          0.00995025
      146           0.0608813            0.105298                   0          0.00995025
      147           0.0622342            0.107638                   0          0.00995025
      148           0.0635871            0.109978                   0          0.00995025
      149           0.0649401            0.112318                   0          0.00995025
      150            0.066293            0.114658                   0          0.00995025
      151           0.0676459            0.116998                   0          0.00995025
      152           0.0689988            0.119338                   0          0.00995025
      153           0.0703517            0.121678                   0          0.00995025
      154           0.0717047            0.124018                   0          0.00995025
      155           0.0730576            0.126358                   0          0.00995025
      156           0.0744105            0.128698                   0          0.00995025
      157           0.0757634            0.131038                   0          0.00995025
      158           0.0771163            0.133378                   0          0.00995025
      159           0.0784692            0.135718                   0          0.00995025
      160           0.0798222            0.138058                   0          0.00995025
      161           0.0811751            0.140398                   0          0.00995025
      162            0.082528            0.142737                   0          0.00995025
      163           0.0838809            0.145077                   0          0.00995025
      164           0.0852338            0.147417                   0          0.00995025
      165           0.0865867            0.149757                   0          0.00995025
      166           0.0879397            0.152097                   0          0.00995025
      167           0.0892926            0.154437                   0          0.00995025
      168           0.0906455            0.156777                   0          0.00995025
      169           0.0919984            0.159117                   0          0.00995025
      170           0.0933513            0.161457                   0          0.00995025
      171           0.0947043            0.163797                   0          0.00995025
      172           0.0960572            0.166137                   0          0.00995025
      173           0.0974101            0.168477                   0          0.00995025
      174            0.098763            0.170817                   0          0.00995025
      175            0.100116            0.173157                   0          0.00995025
      176            0.101469            0.175497                   0          0.00995025
      177            0.102822            0.177837                   0          0.00995025
      178            0.104175            0.180177                   0          0.00995025
      179            0.105528            0.182517                   0          0.00995025
      180            0.106881            0.184857                   0          0.00995025
      181            0.108233            0.187197                   0          0.00995025
      182            0.109586            0.189537                   0          0.00995025
      183            0.110939            0.191877                   0          0.00995025
      184            0.112292            0.194217                   0          0.00995025
      185            0.113645            0.196557                   0          0.00995025
      186            0.114998            0.198896                   0          0.00995025
      187            0.116351            0.201236                   0          0.00995025
      188            0.117704            0.203576                   0          0.00995025
      189            0.119057            0.205916                   0          0.00995025
      190             0.12041            0.208256                   0          0.00995025
      191            0.121763            0.210596                   0          0.00995025
      192            0.123116            0.212936                   0          0.00995025
      193            0.124468            0.215276                   0          0.00995025
      194            0.125821            0.217616                   0          0.00995025
      195            0.127174            0.219956                   0          0.00995025
      196            0.128527            0.222296                   0          0.00995025
      197             0.12988            0.224636                   0          0.00995025
      198            0.131233            0.226976                   0          0.00995025
      199            0.132586            0.229316                   0          0.00995025
      200            0.133939            0.231656                   0          0.00995025
      201            0.135292            0.233996                   0          0.00995025

  KPOINTS            DIRECT_X            DIRECT_Y            DIRECT_Z              WEIGHT
        1                 2.5                 2.5                   0          0.00995025
        2               2.475               2.475                   0          0.00995025
        3                2.45                2.45                   0          0.00995025
        4               2.425               2.425                   0          0.00995025
        5                 2.4                 2.4                   0          0.00995025
        6               2.375               2.375                   0          0.00995025
        7                2.35                2.35                   0          0.00995025
        8               2.325               2.325                   0          0.00995025
        9                 2.3                 2.3                   0          0.00995025
       10               2.275               2.275                   0          0.00995025
       11                2.25                2.25                   0          0.00995025
       12               2.225               2.225                   0          0.00995025
       13                 2.2                 2.2                   0          0.00995025
       14               2.175               2.175                   0          0.00995025
       15                2.15                2.15                   0          0.00995025
       16               2.125               2.125                   0          0.00995025
       17                 2.1                 2.1                   0          0.00995025
       18               2.075               2.075                   0          0.00995025
       19                2.05                2.05                   0          0.00995025
       20               2.025               2.025                   0          0.00995025
       21                   2                   2                   0          0.00995025
       22               1.975               1.975                   0          0.00995025
       23                1.95                1.95                   0          0.00995025
       24               1.925               1.925                   0          0.00995025
       25                 1.9                 1.9                   0          0.00995025
       26               1.875               1.875                   0          0.00995025
       27                1.85                1.85                   0          0.00995025
       28               1.825               1.825                   0          0.00995025
       29                 1.8                 1.8                   0          0.00995025
       30               1.775               1.775                   0          0.00995025
       31                1.75                1.75                   0          0.00995025
       32               1.725               1.725                   0          0.00995025
       33                 1.7                 1.7                   0          0.00995025
       34               1.675               1.675                   0          0.00995025
       35                1.65                1.65                   0          0.00995025
       36               1.625               1.625                   0          0.00995025
       37                 1.6                 1.6                   0          0.00995025
       38               1.575               1.575                   0          0.00995025
       39                1.55                1.55                   0          0.00995025
       40               1.525               1.525                   0          0.00995025
       41                 1.5                 1.5                   0          0.00995025
       42               1.475               1.475                   0          0.00995025
       43                1.45                1.45                   0          0.00995025
       44               1.425               1.425                   0          0.00995025
       45                 1.4                 1.4                   0          0.00995025
       46               1.375               1.375                   0          0.00995025
       47                1.35                1.35                   0          0.00995025
       48               1.325               1.325                   0          0.00995025
       49                 1.3                 1.3                   0          0.00995025
       50               1.275               1.275                   0          0.00995025
       51                1.25                1.25                   0          0.00995025
       52               1.225               1.225                   0          0.00995025
       53                 1.2                 1.2                   0          0.00995025
       54               1.175               1.175                   0          0.00995025
       55                1.15                1.15                   0          0.00995025
       56               1.125               1.125                   0          0.00995025
       57                 1.1                 1.1                   0          0.00995025
       58               1.075               1.075                   0          0.00995025
       59                1.05                1.05                   0          0.00995025
       60               1.025               1.025                   0          0.00995025
       61                   1                   1                   0          0.00995025
       62               0.975               0.975                   0          0.00995025
       63                0.95                0.95                   0          0.00995025
       64               0.925               0.925                   0          0.00995025
       65                 0.9                 0.9                   0          0.00995025
       66               0.875               0.875                   0          0.00995025
       67                0.85                0.85                   0          0.00995025
       68               0.825               0.825                   0          0.00995025
       69                 0.8                 0.8                   0          0.00995025
       70               0.775               0.775                   0          0.00995025
       71                0.75                0.75                   0          0.00995025
       72               0.725               0.725                   0          0.00995025
       73                 0.7                 0.7                   0          0.00995025
       74               0.675               0.675                   0          0.00995025
       75                0.65                0.65                   0          0.00995025
       76               0.625               0.625                   0          0.00995025
       77                 0.6                 0.6                   0          0.00995025
       78               0.575               0.575                   0          0.00995025
       79                0.55                0.55                   0          0.00995025
       80               0.525               0.525                   0          0.00995025
       81                 0.5                 0.5                   0          0.00995025
       82               0.475               0.475                   0          0.00995025
       83                0.45                0.45                   0          0.00995025
       84               0.425               0.425                   0          0.00995025
       85                 0.4                 0.4                   0          0.00995025
       86               0.375               0.375                   0          0.00995025
       87                0.35                0.35                   0          0.00995025
       88               0.325               0.325                   0          0.00995025
       89                 0.3                 0.3                   0          0.00995025
       90               0.275               0.275                   0          0.00995025
       91                0.25                0.25                   0          0.00995025
       92               0.225               0.225                   0          0.00995025
       93                 0.2                 0.2                   0          0.00995025
       94               0.175               0.175                   0          0.00995025
       95                0.15                0.15                   0          0.00995025
       96               0.125               0.125                   0          0.00995025
       97                 0.1                 0.1                   0          0.00995025
       98               0.075               0.075                   0          0.00995025
       99                0.05                0.05                   0          0.00995025
      100               0.025               0.025                   0          0.00995025
      101                   0                   0                   0          0.00995025
      102           0.0166667           0.0333333                   0          0.00995025
      103           0.0333333           0.0666667                   0          0.00995025
      104                0.05                 0.1                   0          0.00995025
      105           0.0666667            0.133333                   0          0.00995025
      106           0.0833333            0.166667                   0          0.00995025
      107                 0.1                 0.2                   0          0.00995025
      108            0.116667            0.233333                   0          0.00995025
      109            0.133333            0.266667                   0          0.00995025
      110                0.15                 0.3                   0          0.00995025
      111            0.166667            0.333333                   0          0.00995025
      112            0.183333            0.366667                   0          0.00995025
      113                 0.2                 0.4                   0          0.00995025
      114            0.216667            0.433333                   0          0.00995025
      115            0.233333            0.466667                   0          0.00995025
      116                0.25                 0.5                   0          0.00995025
      117            0.266667            0.533333                   0          0.00995025
      118            0.283333            0.566667                   0          0.00995025
      119                 0.3                 0.6                   0          0.00995025
      120            0.316667            0.633333                   0          0.00995025
      121            0.333333            0.666667                   0          0.00995025
      122                0.35                 0.7                   0          0.00995025
      123            0.366667            0.733333                   0          0.00995025
      124            0.383333            0.766667                   0          0.00995025
      125                 0.4                 0.8                   0          0.00995025
      126            0.416667            0.833333                   0          0.00995025
      127            0.433333            0.866667                   0          0.00995025
      128                0.45                 0.9                   0          0.00995025
      129            0.466667            0.933333                   0          0.00995025
      130            0.483333            0.966667                   0          0.00995025
      131                 0.5                   1                   0          0.00995025
      132            0.516667             1.03333                   0          0.00995025
      133            0.533333             1.06667                   0          0.00995025
      134                0.55                 1.1                   0          0.00995025
      135            0.566667             1.13333                   0          0.00995025
      136            0.583333             1.16667                   0          0.00995025
      137                 0.6                 1.2                   0          0.00995025
      138            0.616667             1.23333                   0          0.00995025
      139            0.633333             1.26667                   0          0.00995025
      140                0.65                 1.3                   0          0.00995025
      141            0.666667             1.33333                   0          0.00995025
      142            0.683333             1.36667                   0          0.00995025
      143                 0.7                 1.4                   0          0.00995025
      144            0.716667             1.43333                   0          0.00995025
      145            0.733333             1.46667                   0          0.00995025
      146                0.75                 1.5                   0          0.00995025
      147            0.766667             1.53333                   0          0.00995025
      148            0.783333             1.56667                   0          0.00995025
      149                 0.8                 1.6                   0          0.00995025
      150            0.816667             1.63333                   0          0.00995025
      151            0.833333             1.66667                   0          0.00995025
      152                0.85                 1.7                   0          0.00995025
      153            0.866667             1.73333                   0          0.00995025
      154            0.883333             1.76667                   0          0.00995025
      155                 0.9                 1.8                   0          0.00995025
      156            0.916667             1.83333                   0          0.00995025
      157            0.933333             1.86667                   0          0.00995025
      158                0.95                 1.9                   0          0.00995025
      159            0.966667             1.93333                   0          0.00995025
      160            0.983333             1.96667                   0          0.00995025
      161                   1                   2                   0          0.00995025
      162             1.01667             2.03333                   0          0.00995025
      163             1.03333             2.06667                   0          0.00995025
      164                1.05                 2.1                   0          0.00995025
      165             1.06667             2.13333                   0          0.00995025
      166             1.08333             2.16667                   0          0.00995025
      167                 1.1                 2.2                   0          0.00995025
      168             1.11667             2.23333                   0          0.00995025
      169             1.13333             2.26667                   0          0.00995025
      170                1.15                 2.3                   0          0.00995025
      171             1.16667             2.33333                   0          0.00995025
      172             1.18333             2.36667                   0          0.00995025
      173                 1.2                 2.4                   0          0.00995025
      174             1.21667             2.43333                   0          0.00995025
      175             1.23333             2.46667                   0          0.00995025
      176                1.25                 2.5                   0          0.00995025
      177             1.26667             2.53333                   0          0.00995025
      178             1.28333             2.56667                   0          0.00995025
      179                 1.3                 2.6                   0          0.00995025
      180             1.31667             2.63333                   0          0.00995025
      181             1.33333             2.66667                   0          0.00995025
      182                1.35                 2.7                   0          0.00995025
      183             1.36667             2.73333                   0          0.00995025
      184             1.38333             2.76667                   0          0.00995025
      185                 1.4                 2.8                   0          0.00995025
      186             1.41667             2.83333                   0          0.00995025
      187             1.43333             2.86667                   0          0.00995025
      188                1.45                 2.9                   0          0.00995025
      189             1.46667             2.93333                   0          0.00995025
      190             1.48333             2.96667                   0          0.00995025
      191                 1.5                   3                   0          0.00995025
      192             1.51667             3.03333                   0          0.00995025
      193             1.53333             3.06667                   0          0.00995025
      194                1.55                 3.1                   0          0.00995025
      195             1.56667             3.13333                   0          0.00995025
      196             1.58333             3.16667                   0          0.00995025
      197                 1.6                 3.2                   0          0.00995025
      198             1.61667             3.23333                   0          0.00995025
      199             1.63333             3.26667                   0          0.00995025
      200                1.65                 3.3                   0          0.00995025
      201             1.66667             3.33333                   0          0.00995025
 DONE : INIT K-POINTS Time : 0.118901 (SEC)

                           occupied bands = 101
                                   NLOCAL = 650
                                   NBANDS = 121
                                   NBANDS = 121




 >>>>>>>>>>>>>>>>>>>>>>>>>>>>>>>>>>>>>>>>>>>>>>>>>>>>>>>>>>>>>>>>>>>>>>
 |                                                                    |
 | Setup numerical orbitals:                                          |
 | This part setup: numerical atomic orbitals, non-local projectors   |
 | and neutral potential (1D). The atomic orbitals information        |
 | including the radius, angular momentum and zeta number.            |
 | The neutral potential is the sum of local part of pseudopotential  |
 | and potential given by atomic charge, they will cancel out beyond  |
 | a certain radius cutoff, because the Z/r character.                |
 |                                                                    |
 <<<<<<<<<<<<<<<<<<<<<<<<<<<<<<<<<<<<<<<<<<<<<<<<<<<<<<<<<<<<<<<<<<<<<<





 SETUP ONE DIMENSIONAL ORBITALS/POTENTIAL
                        delta k  (1/Bohr) = 0.01
                        delta r    (Bohr) = 0.01
                        dr_uniform (Bohr) = 0.001
                        rmax       (Bohr) = 30
                                    kmesh = 779
      ORBITAL  L  N      nr      dr    RCUT  CHECK_UNIT    NEW_UNIT
            1  0  0     601    0.01       6           1           1
            2  0  1     601    0.01       6           1           1
            3  1  0     601    0.01       6           1           1
            4  1  1     601    0.01       6           1           1
            5  2  0     601    0.01       6           1           1
      ORBITAL  L  N      nr      dr    RCUT  CHECK_UNIT    NEW_UNIT
            1  0  0     601    0.01       6           1           1
            2  0  1     601    0.01       6           1           1
            3  1  0     601    0.01       6           1           1
            4  1  1     601    0.01       6           1           1
            5  2  0     601    0.01       6           1           1
 SET NONLOCAL PSEUDOPOTENTIAL PROJECTORS
 SET NONLOCAL PSEUDOPOTENTIAL PROJECTORS
 max number of nonlocal projetors among all species is 4

 SETUP THE TWO-CENTER INTEGRATION TABLES

 SETUP THE DIVISION OF H/S MATRIX
 divide the H&S matrix using 2D block algorithms.
                                     nb2d = 32
                  trace_loc_row dimension = 650
                  trace_loc_col dimension = 650
                                     nloc = 28900




 >>>>>>>>>>>>>>>>>>>>>>>>>>>>>>>>>>>>>>>>>>>>>>>>>>>>>>>>>>>>>>>>>>>>>>
 |                                                                    |
 | Search adjacent atoms:                                             |
 | Set the adjacent atoms for each atom and set the periodic boundary |
 | condition for the atoms on real space FFT grid. For k-dependent    |
 | algorithm, we also need to set the sparse H and S matrix element   |
 | for each atom.                                                     |
 |                                                                    |
 <<<<<<<<<<<<<<<<<<<<<<<<<<<<<<<<<<<<<<<<<<<<<<<<<<<<<<<<<<<<<<<<<<<<<<





 SETUP SEARCHING RADIUS FOR PROGRAM TO SEARCH ADJACENT ATOMS
                  longest orb rcut (Bohr) = 6
   longest nonlocal projector rcut (Bohr) = 1.5
              searching radius is (Bohr)) = 15
         searching radius unit is (Bohr)) = 1.89

 SETUP EXTENDED REAL SPACE GRID FOR GRID INTEGRATION
                        [real space grid] = 120, 120, 150
               [big cell numbers in grid] = 60, 60, 75
           [meshcell numbers in big cell] = 2, 2, 2
                      [extended fft grid] = 18, 18, 16
              [dimension of extened grid] = 97, 97, 108
                            UnitCellTotal = 27
 No atoms on this sub-FFT-mesh.
              Atom number in sub-FFT-grid = 0
    Local orbitals number in sub-FFT-grid = 0
                                ParaV.nnr = 35934
                                     nnrg = 0
Successful completion of Potential's registration : local
Successful completion of Potential's registration : hartree
Successful completion of Potential's registration : xc
Successful completion of Potential's registration : tddft
 Memory of pvpR : 0 MB
                                nnrg_last = 0
                                 nnrg_now = 0
                                 init_chg = file
 try to read charge from file : OUT.ABACUS/SPIN1_CHG
 Find the file, try to read charge from file.
 read in fermi energy = -0.0688
 Read in the charge density: OUT.ABACUS/SPIN1_CHG
 end of band structure calculation 
 band eigenvalue in this processor (eV) :
 k-points1(201): 0.202938 0.11683 0
 spin1final_state 1 -28.4102 0
 spin1final_state 2 -20.8522 0
 spin1final_state 3 -20.6629 0
 spin1final_state 4 -20.5467 0
 spin1final_state 5 -20.146 0
 spin1final_state 6 -19.8254 0
 spin1final_state 7 -19.6421 0
 spin1final_state 8 -19.4757 0
 spin1final_state 9 -19.1182 0
 spin1final_state 10 -19.0678 0
 spin1final_state 11 -18.7137 0
 spin1final_state 12 -18.6378 0
 spin1final_state 13 -18.0739 0
 spin1final_state 14 -18.0502 0
 spin1final_state 15 -17.6113 0
 spin1final_state 16 -17.479 0
 spin1final_state 17 -17.1214 0
 spin1final_state 18 -16.8114 0
 spin1final_state 19 -16.593 0
 spin1final_state 20 -16.5369 0
 spin1final_state 21 -16.4031 0
 spin1final_state 22 -16.3873 0
 spin1final_state 23 -15.9789 0
 spin1final_state 24 -15.6897 0
 spin1final_state 25 -15.5285 0
[...]
 spin1final_state 17 -16.9932 0
 spin1final_state 18 -16.9037 0
 spin1final_state 19 -16.8451 0
 spin1final_state 20 -16.6889 0
 spin1final_state 21 -16.3345 0
 spin1final_state 22 -16.0677 0
 spin1final_state 23 -15.94 0
 spin1final_state 24 -15.8652 0
 spin1final_state 25 -15.3846 0
 spin1final_state 26 -15.2662 0
 spin1final_state 27 -14.9873 0
 spin1final_state 28 -14.6611 0
 spin1final_state 29 -14.2975 0
 spin1final_state 30 -13.9844 0
 spin1final_state 31 -13.6841 0
 spin1final_state 32 -13.3088 0
 spin1final_state 33 -13.084 0
 spin1final_state 34 -12.9821 0
 spin1final_state 35 -12.7336 0
 spin1final_state 36 -12.6371 0
 spin1final_state 37 -12.5757 0
 spin1final_state 38 -12.4853 0
 spin1final_state 39 -12.2475 0
 spin1final_state 40 -12.0652 0
 spin1final_state 41 -11.4484 0
 spin1final_state 42 -11.2608 0
 spin1final_state 43 -11.1757 0
 spin1final_state 44 -10.9066 0
 spin1final_state 45 -10.8541 0
 spin1final_state 46 -10.7108 0
 spin1final_state 47 -10.5722 0
 spin1final_state 48 -10.3298 0
 spin1final_state 49 -10.1003 0
 spin1final_state 50 -9.92682 0
 spin1final_state 51 -9.76984 0
 spin1final_state 52 -9.40921 0
 spin1final_state 53 -9.32622 0
 spin1final_state 54 -8.87169 0
 spin1final_state 55 -8.85522 0
 spin1final_state 56 -8.84319 0
 spin1final_state 57 -8.73544 0
 spin1final_state 58 -8.73073 0
 spin1final_state 59 -8.65804 0
 spin1final_state 60 -8.52567 0
 spin1final_state 61 -8.46797 0
 spin1final_state 62 -8.40778 0
 spin1final_state 63 -8.40756 0
 spin1final_state 64 -8.02652 0
 spin1final_state 65 -7.93802 0
 spin1final_state 66 -7.88231 0
 spin1final_state 67 -7.80339 0
 spin1final_state 68 -7.65833 0
 spin1final_state 69 -7.58593 0
 spin1final_state 70 -7.5636 0
 spin1final_state 71 -7.47949 0
 spin1final_state 72 -7.38574 0
 spin1final_state 73 -7.33041 0
 spin1final_state 74 -7.22899 0
 spin1final_state 75 -7.19967 0
 spin1final_state 76 -6.9586 0
 spin1final_state 77 -6.8637 0
 spin1final_state 78 -6.76183 0
 spin1final_state 79 -6.68373 0
 spin1final_state 80 -6.62169 0
 spin1final_state 81 -6.33605 0
 spin1final_state 82 -6.30906 0
 spin1final_state 83 -6.04492 0
 spin1final_state 84 -5.74806 0
 spin1final_state 85 -5.7325 0
 spin1final_state 86 -5.59108 0
 spin1final_state 87 -5.43265 0
 spin1final_state 88 -5.21701 0
 spin1final_state 89 -5.05565 0
 spin1final_state 90 -4.93126 0
 spin1final_state 91 -4.67419 0
 spin1final_state 92 -4.48736 0
 spin1final_state 93 -4.45039 0
 spin1final_state 94 -4.26257 0
 spin1final_state 95 -4.04285 0
 spin1final_state 96 -3.83414 0
 spin1final_state 97 -3.76644 0
 spin1final_state 98 -3.7423 0
 spin1final_state 99 -3.3939 0
 spin1final_state 100 -2.08201 0
 spin1final_state 101 -1.45451 0
 spin1final_state 102 -0.687187 0
 spin1final_state 103 0.123301 0
 spin1final_state 104 0.251285 0
 spin1final_state 105 0.456974 0
 spin1final_state 106 0.755885 0
 spin1final_state 107 0.988747 0
 spin1final_state 108 1.0896 0
 spin1final_state 109 1.28544 0
 spin1final_state 110 1.52687 0
 spin1final_state 111 1.65029 0
 spin1final_state 112 1.6896 0
 spin1final_state 113 1.85805 0
 spin1final_state 114 2.15643 0
 spin1final_state 115 3.49917 0
 spin1final_state 116 4.1824 0
 spin1final_state 117 4.2877 0
 spin1final_state 118 4.32206 0
 spin1final_state 119 4.50901 0
 spin1final_state 120 4.56441 0
 spin1final_state 121 4.86423 0

 k-points199(201): 0.132586 0.229316 0
 spin1final_state 1 -28.4102 0
 spin1final_state 2 -20.8151 0
 spin1final_state 3 -20.734 0
 spin1final_state 4 -20.5282 0
 spin1final_state 5 -20.0662 0
 spin1final_state 6 -19.9698 0
 spin1final_state 7 -19.5629 0
 spin1final_state 8 -19.3298 0
 spin1final_state 9 -19.2187 0
 spin1final_state 10 -18.9356 0
 spin1final_state 11 -18.9304 0
 spin1final_state 12 -18.7209 0
 spin1final_state 13 -18.1894 0
 spin1final_state 14 -17.7783 0
 spin1final_state 15 -17.6609 0
 spin1final_state 16 -17.2848 0
 spin1final_state 17 -17.0312 0
 spin1final_state 18 -16.9558 0
 spin1final_state 19 -16.8102 0
 spin1final_state 20 -16.6734 0
 spin1final_state 21 -16.4059 0
 spin1final_state 22 -16.0104 0
 spin1final_state 23 -15.9132 0
 spin1final_state 24 -15.859 0
 spin1final_state 25 -15.4036 0
 spin1final_state 26 -15.2902 0
 spin1final_state 27 -15.0211 0
 spin1final_state 28 -14.6108 0
 spin1final_state 29 -14.3583 0
 spin1final_state 30 -13.9848 0
 spin1final_state 31 -13.6223 0
 spin1final_state 32 -13.3321 0
 spin1final_state 33 -12.9923 0
 spin1final_state 34 -12.9186 0
 spin1final_state 35 -12.7528 0
 spin1final_state 36 -12.6705 0
 spin1final_state 37 -12.6 0
 spin1final_state 38 -12.542 0
 spin1final_state 39 -12.2879 0
 spin1final_state 40 -12.0864 0
 spin1final_state 41 -11.4151 0
 spin1final_state 42 -11.2608 0
 spin1final_state 43 -11.1434 0
 spin1final_state 44 -10.9209 0
 spin1final_state 45 -10.8425 0
 spin1final_state 46 -10.6346 0
 spin1final_state 47 -10.5829 0
 spin1final_state 48 -10.3617 0
 spin1final_state 49 -10.1871 0
 spin1final_state 50 -9.92122 0
 spin1final_state 51 -9.79885 0
 spin1final_state 52 -9.41128 0
 spin1final_state 53 -9.23004 0
 spin1final_state 54 -8.91531 0
 spin1final_state 55 -8.88316 0
 spin1final_state 56 -8.84514 0
 spin1final_state 57 -8.74605 0
 spin1final_state 58 -8.73701 0
 spin1final_state 59 -8.63765 0
 spin1final_state 60 -8.515 0
 spin1final_state 61 -8.40917 0
 spin1final_state 62 -8.40665 0
 spin1final_state 63 -8.39256 0
 spin1final_state 64 -8.10885 0
 spin1final_state 65 -7.88887 0
 spin1final_state 66 -7.85044 0
 spin1final_state 67 -7.76849 0
 spin1final_state 68 -7.69648 0
 spin1final_state 69 -7.59391 0
 spin1final_state 70 -7.56939 0
 spin1final_state 71 -7.49089 0
 spin1final_state 72 -7.42095 0
 spin1final_state 73 -7.32965 0
 spin1final_state 74 -7.21612 0
 spin1final_state 75 -7.17171 0
 spin1final_state 76 -6.94035 0
 spin1final_state 77 -6.91236 0
 spin1final_state 78 -6.74756 0
 spin1final_state 79 -6.65942 0
 spin1final_state 80 -6.64791 0
 spin1final_state 81 -6.42488 0
 spin1final_state 82 -6.22153 0
 spin1final_state 83 -6.05458 0
 spin1final_state 84 -5.78562 0
 spin1final_state 85 -5.71728 0
 spin1final_state 86 -5.57008 0
 spin1final_state 87 -5.4237 0
 spin1final_state 88 -5.24409 0
 spin1final_state 89 -5.01837 0
 spin1final_state 90 -4.84567 0
 spin1final_state 91 -4.7052 0
 spin1final_state 92 -4.53985 0
 spin1final_state 93 -4.49433 0
 spin1final_state 94 -4.25343 0
 spin1final_state 95 -4.03228 0
 spin1final_state 96 -3.82368 0
 spin1final_state 97 -3.73295 0
 spin1final_state 98 -3.70819 0
 spin1final_state 99 -3.48443 0
 spin1final_state 100 -2.02416 0
 spin1final_state 101 -1.49478 0
 spin1final_state 102 -0.702291 0
 spin1final_state 103 0.123481 0
 spin1final_state 104 0.23794 0
 spin1final_state 105 0.52162 0
 spin1final_state 106 0.742175 0
 spin1final_state 107 0.941212 0
 spin1final_state 108 1.10475 0
 spin1final_state 109 1.36593 0
 spin1final_state 110 1.58216 0
 spin1final_state 111 1.68798 0
 spin1final_state 112 1.69144 0
 spin1final_state 113 1.76519 0
 spin1final_state 114 2.02285 0
 spin1final_state 115 3.55892 0
 spin1final_state 116 4.31442 0
 spin1final_state 117 4.32036 0
 spin1final_state 118 4.33487 0
 spin1final_state 119 4.51242 0
 spin1final_state 120 4.54356 0
 spin1final_state 121 4.78054 0

 k-points200(201): 0.133939 0.231656 0
 spin1final_state 1 -28.4102 0
 spin1final_state 2 -20.8091 0
 spin1final_state 3 -20.7422 0
 spin1final_state 4 -20.5276 0
 spin1final_state 5 -20.0458 0
 spin1final_state 6 -19.9938 0
 spin1final_state 7 -19.5522 0
 spin1final_state 8 -19.3091 0
 spin1final_state 9 -19.2502 0
 spin1final_state 10 -18.9099 0
 spin1final_state 11 -18.9011 0
 spin1final_state 12 -18.7938 0
 spin1final_state 13 -18.1597 0
 spin1final_state 14 -17.7871 0
 spin1final_state 15 -17.6752 0
 spin1final_state 16 -17.1985 0
 spin1final_state 17 -17.0709 0
 spin1final_state 18 -17.01 0
 spin1final_state 19 -16.7635 0
 spin1final_state 20 -16.6748 0
 spin1final_state 21 -16.4595 0
 spin1final_state 22 -15.963 0
 spin1final_state 23 -15.8935 0
 spin1final_state 24 -15.8655 0
 spin1final_state 25 -15.4232 0
 spin1final_state 26 -15.3013 0
 spin1final_state 27 -15.0464 0
 spin1final_state 28 -14.5526 0
 spin1final_state 29 -14.4179 0
 spin1final_state 30 -13.9865 0
 spin1final_state 31 -13.5676 0
 spin1final_state 32 -13.371 0
 spin1final_state 33 -12.8918 0
 spin1final_state 34 -12.8491 0
 spin1final_state 35 -12.7709 0
 spin1final_state 36 -12.7132 0
 spin1final_state 37 -12.6662 0
 spin1final_state 38 -12.5646 0
 spin1final_state 39 -12.3106 0
 spin1final_state 40 -12.1013 0
 spin1final_state 41 -11.3953 0
 spin1final_state 42 -11.2608 0
 spin1final_state 43 -11.1121 0
 spin1final_state 44 -10.9679 0
 spin1final_state 45 -10.7822 0
 spin1final_state 46 -10.6575 0
 spin1final_state 47 -10.5038 0
 spin1final_state 48 -10.3917 0
 spin1final_state 49 -10.2785 0
 spin1final_state 50 -9.91009 0
 spin1final_state 51 -9.81418 0
 spin1final_state 52 -9.41922 0
 spin1final_state 53 -9.12615 0
 spin1final_state 54 -8.96488 0
 spin1final_state 55 -8.93229 0
 spin1final_state 56 -8.83654 0
 spin1final_state 57 -8.758 0
 spin1final_state 58 -8.73398 0
 spin1final_state 59 -8.61996 0
 spin1final_state 60 -8.52221 0
 spin1final_state 61 -8.40625 0
 spin1final_state 62 -8.35425 0
 spin1final_state 63 -8.3509 0
 spin1final_state 64 -8.20253 0
 spin1final_state 65 -7.85251 0
 spin1final_state 66 -7.8188 0
 spin1final_state 67 -7.74616 0
 spin1final_state 68 -7.7311 0
 spin1final_state 69 -7.60717 0
 spin1final_state 70 -7.54605 0
 spin1final_state 71 -7.50372 0
 spin1final_state 72 -7.46042 0
 spin1final_state 73 -7.32907 0
 spin1final_state 74 -7.1981 0
 spin1final_state 75 -7.13884 0
 spin1final_state 76 -7.01171 0
 spin1final_state 77 -6.87484 0
 spin1final_state 78 -6.75917 0
 spin1final_state 79 -6.64049 0
 spin1final_state 80 -6.62502 0
 spin1final_state 81 -6.51163 0
 spin1final_state 82 -6.14771 0
 spin1final_state 83 -6.07183 0
 spin1final_state 84 -5.81831 0
 spin1final_state 85 -5.70847 0
 spin1final_state 86 -5.55682 0
 spin1final_state 87 -5.41222 0
 spin1final_state 88 -5.26677 0
 spin1final_state 89 -4.99131 0
 spin1final_state 90 -4.77241 0
 spin1final_state 91 -4.71688 0
 spin1final_state 92 -4.58575 0
 spin1final_state 93 -4.53951 0
 spin1final_state 94 -4.24532 0
 spin1final_state 95 -4.02746 0
 spin1final_state 96 -3.81708 0
 spin1final_state 97 -3.70132 0
 spin1final_state 98 -3.67001 0
 spin1final_state 99 -3.56915 0
 spin1final_state 100 -1.98363 0
 spin1final_state 101 -1.52486 0
 spin1final_state 102 -0.711443 0
 spin1final_state 103 0.121092 0
 spin1final_state 104 0.229508 0
 spin1final_state 105 0.575629 0
 spin1final_state 106 0.737349 0
 spin1final_state 107 0.894845 0
 spin1final_state 108 1.1207 0
 spin1final_state 109 1.42896 0
 spin1final_state 110 1.63864 0
 spin1final_state 111 1.69274 0
 spin1final_state 112 1.69388 0
 spin1final_state 113 1.73239 0
 spin1final_state 114 1.8939 0
 spin1final_state 115 3.59559 0
 spin1final_state 116 4.31904 0
 spin1final_state 117 4.35975 0
 spin1final_state 118 4.46754 0
 spin1final_state 119 4.5149 0
 spin1final_state 120 4.52845 0
 spin1final_state 121 4.70092 0

 k-points201(201): 0.135292 0.233996 0
 spin1final_state 1 -28.4102 0
 spin1final_state 2 -20.8066 0
 spin1final_state 3 -20.7455 0
 spin1final_state 4 -20.5275 0
 spin1final_state 5 -20.0296 0
 spin1final_state 6 -20.0111 0
 spin1final_state 7 -19.5478 0
 spin1final_state 8 -19.2993 0
 spin1final_state 9 -19.2644 0
 spin1final_state 10 -18.8871 0
 spin1final_state 11 -18.8813 0
 spin1final_state 12 -18.8422 0
 spin1final_state 13 -18.1494 0
 spin1final_state 14 -17.7875 0
 spin1final_state 15 -17.6833 0
 spin1final_state 16 -17.1377 0
 spin1final_state 17 -17.0934 0
 spin1final_state 18 -17.0508 0
 spin1final_state 19 -16.7287 0
 spin1final_state 20 -16.6948 0
 spin1final_state 21 -16.4769 0
 spin1final_state 22 -15.9397 0
 spin1final_state 23 -15.8932 0
 spin1final_state 24 -15.8687 0
 spin1final_state 25 -15.4303 0
 spin1final_state 26 -15.3048 0
 spin1final_state 27 -15.055 0
 spin1final_state 28 -14.5008 0
 spin1final_state 29 -14.4692 0
 spin1final_state 30 -13.9876 0
 spin1final_state 31 -13.5408 0
 spin1final_state 32 -13.3933 0
 spin1final_state 33 -12.8258 0
 spin1final_state 34 -12.802 0
 spin1final_state 35 -12.7715 0
 spin1final_state 36 -12.7481 0
 spin1final_state 37 -12.7305 0
 spin1final_state 38 -12.5713 0
 spin1final_state 39 -12.3178 0
 spin1final_state 40 -12.1065 0
 spin1final_state 41 -11.3889 0
 spin1final_state 42 -11.2608 0
 spin1final_state 43 -11.096 0
 spin1final_state 44 -10.9883 0
 spin1final_state 45 -10.7268 0
 spin1final_state 46 -10.708 0
 spin1final_state 47 -10.4375 0
 spin1final_state 48 -10.4 0
 spin1final_state 49 -10.3446 0
 spin1final_state 50 -9.90319 0
 spin1final_state 51 -9.8195 0
 spin1final_state 52 -9.42308 0
 spin1final_state 53 -9.03723 0
 spin1final_state 54 -9.00503 0
 spin1final_state 55 -8.98011 0
 spin1final_state 56 -8.83288 0
 spin1final_state 57 -8.76283 0
 spin1final_state 58 -8.73286 0
 spin1final_state 59 -8.61391 0
 spin1final_state 60 -8.52596 0
 spin1final_state 61 -8.40612 0
 spin1final_state 62 -8.31389 0
 spin1final_state 63 -8.29907 0
 spin1final_state 64 -8.29129 0
 spin1final_state 65 -7.84007 0
 spin1final_state 66 -7.7988 0
 spin1final_state 67 -7.75175 0
 spin1final_state 68 -7.74077 0
 spin1final_state 69 -7.60669 0
 spin1final_state 70 -7.52737 0
 spin1final_state 71 -7.51641 0
 spin1final_state 72 -7.47955 0
 spin1final_state 73 -7.329 0
 spin1final_state 74 -7.18492 0
 spin1final_state 75 -7.12072 0
 spin1final_state 76 -7.05009 0
 spin1final_state 77 -6.85911 0
 spin1final_state 78 -6.76999 0
 spin1final_state 79 -6.61286 0
 spin1final_state 80 -6.59885 0
 spin1final_state 81 -6.57695 0
 spin1final_state 82 -6.10298 0
 spin1final_state 83 -6.09443 0
 spin1final_state 84 -5.83285 0
 spin1final_state 85 -5.70547 0
 spin1final_state 86 -5.55255 0
 spin1final_state 87 -5.40628 0
 spin1final_state 88 -5.27589 0
 spin1final_state 89 -4.97987 0
 spin1final_state 90 -4.75955 0
 spin1final_state 91 -4.69034 0
 spin1final_state 92 -4.59301 0
 spin1final_state 93 -4.58333 0
 spin1final_state 94 -4.24293 0
 spin1final_state 95 -4.02627 0
 spin1final_state 96 -3.81517 0
 spin1final_state 97 -3.68218 0
 spin1final_state 98 -3.63609 0
 spin1final_state 99 -3.62695 0
 spin1final_state 100 -1.96708 0
 spin1final_state 101 -1.53751 0
 spin1final_state 102 -0.714836 0
 spin1final_state 103 0.119872 0
 spin1final_state 104 0.22665 0
 spin1final_state 105 0.593347 0
 spin1final_state 106 0.743813 0
 spin1final_state 107 0.871881 0
 spin1final_state 108 1.12844 0
 spin1final_state 109 1.45329 0
 spin1final_state 110 1.65616 0
 spin1final_state 111 1.69331 0
 spin1final_state 112 1.69442 0
 spin1final_state 113 1.7766 0
 spin1final_state 114 1.79327 0
 spin1final_state 115 3.60751 0
 spin1final_state 116 4.31816 0
 spin1final_state 117 4.39133 0
 spin1final_state 118 4.48011 0
 spin1final_state 119 4.51615 0
 spin1final_state 120 4.62435 0
 spin1final_state 121 4.63567 0



 --------------------------------------------
 !FINAL_ETOT_IS 0 eV
 --------------------------------------------






 >>>>>>>>>>>>>>>>>>>>>>>>>>>>>>>>>>>>>>>>>>>>>>>>>>>>>>>>>>>>>>>>>>>>>>
 |                                                                    |
 | Post-processing of data:                                           |
 | DOS (density of states) and bands will be output here.             |
 | If atomic orbitals are used, Mulliken charge analysis can be done. |
 | Also the .bxsf file containing fermi surface information can be    |
 | done here.                                                         |
 |                                                                    |
 <<<<<<<<<<<<<<<<<<<<<<<<<<<<<<<<<<<<<<<<<<<<<<<<<<<<<<<<<<<<<<<<<<<<<<





 Output bands in file: OUT.ABACUS/BANDS_1.dat




  |CLASS_NAME---------|NAME---------------|TIME(Sec)-----|CALLS----|AVG------|PER%-------
                                      total           79.7         5        16     1e+02%
                 Driver         driver_line         79.657         1        80     1e+02%
               PW_Basis  setup_struc_factor        0.12455         1      0.12      0.16%
            ORB_control      set_orb_tables         5.8441         1       5.8       7.3%
         ORB_gen_tables          gen_tables         5.8441         1       5.8       7.3%
          ORB_table_phi          init_Table          4.172         1       4.2       5.2%
          ORB_table_phi      cal_ST_Phi12_R         4.1613       210      0.02       5.2%
         ORB_table_beta     init_Table_Beta         1.2939         1       1.3       1.6%
         ORB_table_beta       VNL_PhiBeta_R           1.29       104     0.012       1.6%
              ppcell_vl           init_vloc        0.69023         1      0.69      0.87%
        ESolver_KS_LCAO    othercalculation         72.637         1        73        91%
        ESolver_KS_LCAO        beforesolver        0.10534         1      0.11      0.13%
        ESolver_KS_LCAO     set_matrix_grid        0.10485         1       0.1      0.13%
              Potential            init_pot        0.63907         1      0.64       0.8%
              Potential  update_from_charge        0.63906         1      0.64       0.8%
               PW_Basis          recip2real        0.25095         6     0.042      0.31%
               PW_Basis    gathers_scatterp        0.12333         6     0.021      0.15%
              Potential           cal_v_eff        0.57751         1      0.58      0.72%
               PW_Basis          real2recip        0.21815         6     0.036      0.27%
               PW_Basis    gatherp_scatters        0.11937         6      0.02      0.15%
                  PotXC           cal_v_eff        0.48802         1      0.49      0.61%
          XC_Functional                v_xc        0.48331         1      0.48      0.61%
            HSolverLCAO               solve         70.034         1        70        88%
             HamiltLCAO            updateHk         7.1732       201     0.036         9%
           OperatorLCAO                init         7.1726       603     0.012         9%
                   Veff        contributeHk         6.0361       201      0.03       7.6%
                 Gint_k        folding_vl_k         6.0356       201      0.03       7.6%
                 Gint_k              Distri         6.0351       201      0.03       7.6%
           OperatorLCAO       folding_fixed         1.0498       201    0.0052       1.3%
               LCAO_nnr      folding_fixedH        0.69806       201    0.0035      0.88%
            HSolverLCAO     hamiltSolvePsiK         32.827       201      0.16        41%
              DiagoElpa          elpa_solve         32.252       201      0.16        40%
      Local_Orbital_wfc      wfc_2d_to_grid         30.032       201      0.15        38%
               WF_Local  write_lowf_complex         29.684       201      0.15        37%
 ----------------------------------------------------------------------------------------

 CLASS_NAME---------|NAME---------------|MEMORY(MB)--------
                                         1762
        ORB_table_phi               Jl(x)          107.2
        Grid_Meshcell        index2normal          3.876
        ORB_table_phi         Table_SR&TR          2.758
             PW_Basis           struc_fac          1.648
    Local_Orbital_wfc                ctot            1.2
               Charge                 rho          1.099
               Charge            rho_save          1.099
               Charge            rho_core          1.099
            Potential   v_effective_fixed          1.099
            Potential              vr_eff          1.099
 ----------------------------------------------------------

 Start  Time  : Thu Nov 14 19:14:24 2024
 Finish Time  : Thu Nov 14 19:15:44 2024
 Total  Time  : 0 h 1 mins 20 secs 
