       N       E                     dE             d eps       ncg     rms          rms(c)
DAV:   1     0.124807304794E+04    0.12481E+04   -0.69049E+04 12896   0.104E+03
DAV:   2    -0.253925937157E+03   -0.15020E+04   -0.14218E+04 18312   0.258E+02
DAV:   3    -0.479134316098E+03   -0.22521E+03   -0.22318E+03 15200   0.104E+02
DAV:   4    -0.485945306844E+03   -0.68110E+01   -0.67528E+01 15272   0.219E+01
DAV:   5    -0.486155524230E+03   -0.21022E+00   -0.20976E+00 16676   0.341E+00
RMM:   6    -0.486160950646E+03   -0.54264E-02   -0.54264E-02 13784   0.606E-01
RMM:   7    -0.486161639935E+03   -0.68929E-03   -0.68322E-03 19600   0.171E-01
RMM:   8    -0.486161646584E+03   -0.66491E-05   -0.71416E-05 16623   0.131E-02
RMM:   9    -0.486161646970E+03   -0.38569E-06   -0.37812E-06 10557   0.373E-03
   1 F= -.48616165E+03 E0= -.48614997E+03  d E =-.233597E-01
