 vasp.5.4.4.18Apr17-6-g9f103f2a35 (build Aug 02 2018 15:13:56) complex          
  
 executed on             LinuxIFC date 2020.05.31  12:40:10
 running on    4 total cores
 distrk:  each k-point on    4 cores,    1 groups
 distr:  one band on NCORES_PER_BAND=   1 cores,    4 groups


--------------------------------------------------------------------------------------------------------


 INCAR:
 POTCAR:    PAW C                                 
 POTCAR:    PAW C                                 
   VRHFIN =C: s2p2                                                              
   LEXCH  = CA                                                                  
   EATOM  =   146.6877 eV,   10.7812 Ry                                         
                                                                                
   TITEL  = PAW C                                                               
   LULTRA =        F    use ultrasoft PP ?                                      
   IUNSCR =        0    unscreen: 0-lin 1-nonlin 2-no                           
   RPACOR =     .000    partial core radius                                     
   POMASS =   12.011; ZVAL   =    4.000    mass and valenz                      
   RCORE  =    1.500    outmost cutoff radius                                   
   RWIGS  =    1.630; RWIGS  =     .863    wigner-seitz radius (au A)           
   ENMAX  =  400.000; ENMIN  =  300.000 eV                                      
   ICORE  =        2    local potential                                         
   LCOR   =        T    correct aug charges                                     
   LPAW   =        T    paw PP                                                  
   EAUG   =  644.873                                                            
   DEXC   =     .000                                                            
   RMAX   =    2.266    core radius for proj-oper                               
   RAUG   =    1.300    factor for augmentation sphere                          
   RDEP   =    1.501    radius for radial grids                                 
   RDEPT  =    1.300    core radius for aug-charge                              
   QCUT   =   -5.516; QGAM   =   11.032    optimization parameters              
                                                                                
   Description                                                                  
     l     E      TYP  RCUT    TYP  RCUT                                        
     0   .000     23  1.200                                                     
     0   .000     23  1.200                                                     
     1   .000     23  1.500                                                     
     1  2.500     23  1.500                                                     
     2   .000      7  1.500                                                     
  local pseudopotential read in
  atomic valenz-charges read in
  non local Contribution for L=           0  read in
    real space projection operators read in
  non local Contribution for L=           0  read in
    real space projection operators read in
  non local Contribution for L=           1  read in
    real space projection operators read in
  non local Contribution for L=           1  read in
    real space projection operators read in
    PAW grid and wavefunctions read in
 
   number of l-projection  operators is LMAX  =           4
   number of lm-projection operators is LMMAX =           8
 
 Optimization of the real space projectors (new method)

 maximal supplied QI-value         = 25.13
 optimisation between [QCUT,QGAM] = [ 10.05, 20.36] = [ 28.30,116.06] Ry 
 Optimized for a Real-space Cutoff    1.30 Angstroem

   l    n(q)    QCUT    max X(q) W(low)/X(q) W(high)/X(q)  e(spline) 
   0      8    10.053     5.578    0.40E-04    0.40E-04    0.54E-07
   0      8    10.053    68.427    0.49E-03    0.71E-03    0.18E-06
   1      7    10.053     2.787    0.79E-04    0.12E-03    0.94E-07
   1      7    10.053     4.374    0.25E-03    0.19E-03    0.21E-06
  PAW C                                 :
 energy of atom  1       EATOM= -146.6877
 kinetic energy error for atom=    0.0289 (will be added to EATOM!!)
 
 
 POSCAR: supercell                               
  positions in direct lattice
  No initial velocities read in
 exchange correlation table for  LEXCH =        2
   RHO(1)=    0.500       N(1)  =     2000
   RHO(2)=  100.500       N(2)  =     4000

 VTST: version 3.1, (03/28/14)

 CHAIN: initializing optimizer
 
 OPT: Using VASP Dynamics algorithm
 CHAIN: Read ICHAIN            0
 
 POSCAR: supercell                               
  positions in direct lattice
  No initial velocities read in
 


--------------------------------------------------------------------------------------------------------


 ion  position               nearest neighbor table
   1  0.000  0.000  0.500-  26 1.42  49 1.42  30 1.42
   2  0.200  0.000  0.500-  27 1.42  45 1.42  26 1.42
   3  0.400  0.000  0.500-  27 1.42  28 1.42  46 1.42
   4  0.600  0.000  0.500-  29 1.42  47 1.42  28 1.42
   5  0.800  0.000  0.500-  29 1.42  30 1.42  48 1.42
   6  0.000  0.200  0.500-  34 1.42  30 1.42  31 1.42
   7  0.200  0.200  0.500-  31 1.42  26 1.42
   8  0.400  0.200  0.500-  27 1.42  32 1.42
   9  0.600  0.200  0.500-  32 1.42  28 1.42  33 1.42
  10  0.800  0.200  0.500-  33 1.42  29 1.42  34 1.42
  11  0.000  0.400  0.500-  34 1.42  35 1.42  39 1.42
  12  0.200  0.400  0.500-  31 1.42  36 1.42  35 1.42
  13  0.400  0.400  0.500-  36 1.42  37 1.42
  14  0.600  0.400  0.500-  32 1.42  38 1.42  37 1.42
  15  0.800  0.400  0.500-  38 1.42  33 1.42  39 1.42
  16  0.000  0.600  0.500-  44 1.42  39 1.42  40 1.42
  17  0.200  0.600  0.500-  40 1.42  35 1.42  41 1.42
  18  0.400  0.600  0.500-  41 1.42  36 1.42  42 1.42
  19  0.600  0.600  0.500-  42 1.42  37 1.42  43 1.42
  20  0.800  0.600  0.500-  43 1.42  38 1.42  44 1.42
  21  0.000  0.800  0.500-  44 1.42  45 1.42  49 1.42
  22  0.200  0.800  0.500-  40 1.42  46 1.42  45 1.42
  23  0.400  0.800  0.500-  46 1.42  41 1.42  47 1.42
  24  0.600  0.800  0.500-  42 1.42  48 1.42  47 1.42
  25  0.800  0.800  0.500-  48 1.42  43 1.42  49 1.42
  26  0.133  0.067  0.500-   1 1.42   7 1.42   2 1.42
  27  0.333  0.067  0.500-   3 1.42   2 1.42   8 1.42
  28  0.533  0.067  0.500-   3 1.42   9 1.42   4 1.42
  29  0.733  0.067  0.500-   5 1.42   4 1.42  10 1.42
  30  0.933  0.067  0.500-   5 1.42   6 1.42   1 1.42
  31  0.133  0.267  0.500-   7 1.42  12 1.42   6 1.42
  32  0.533  0.267  0.500-   9 1.42  14 1.42   8 1.42
  33  0.733  0.267  0.500-  10 1.42  15 1.42   9 1.42
  34  0.933  0.267  0.500-   6 1.42  11 1.42  10 1.42
  35  0.133  0.467  0.500-  11 1.42  17 1.42  12 1.42
  36  0.333  0.467  0.500-  13 1.42  12 1.42  18 1.42
  37  0.533  0.467  0.500-  13 1.42  19 1.42  14 1.42
  38  0.733  0.467  0.500-  15 1.42  14 1.42  20 1.42
  39  0.933  0.467  0.500-  15 1.42  16 1.42  11 1.42
  40  0.133  0.667  0.500-  17 1.42  22 1.42  16 1.42
  41  0.333  0.667  0.500-  18 1.42  23 1.42  17 1.42
  42  0.533  0.667  0.500-  19 1.42  24 1.42  18 1.42
  43  0.733  0.667  0.500-  20 1.42  25 1.42  19 1.42
  44  0.933  0.667  0.500-  16 1.42  21 1.42  20 1.42
  45  0.133  0.867  0.500-   2 1.42  21 1.42  22 1.42
  46  0.333  0.867  0.500-  23 1.42  22 1.42   3 1.42
  47  0.533  0.867  0.500-   4 1.42  23 1.42  24 1.42
  48  0.733  0.867  0.500-  25 1.42  24 1.42   5 1.42
  49  0.933  0.867  0.500-   1 1.42  25 1.42  21 1.42
 
  LATTYP: Found a hexagonal cell.
 ALAT       =    12.3000000000
 C/A-ratio  =     0.8130081301
  
  Lattice vectors:
  
 A1 = (  12.3000000000,   0.0000000000,   0.0000000000)
 A2 = (  -6.1500000000,  10.6521124665,   0.0000000000)
 A3 = (   0.0000000000,   0.0000000000,  10.0000000000)


Analysis of symmetry for initial positions (statically):
=====================================================================
 Subroutine PRICEL returns:
 Original cell was already a primitive cell.
 

 Routine SETGRP: Setting up the symmetry group for a 
 hexagonal supercell.


 Subroutine GETGRP returns: Found 12 space group operations
 (whereof  2 operations were pure point group operations)
 out of a pool of 24 trial point group operations.


The static configuration has the point symmetry C_1h.
 The point group associated with its full space group is D_3h.


Analysis of symmetry for dynamics (positions and initial velocities):
=====================================================================
 Subroutine PRICEL returns:
 Original cell was already a primitive cell.
 

 Routine SETGRP: Setting up the symmetry group for a 
 hexagonal supercell.


 Subroutine GETGRP returns: Found 12 space group operations
 (whereof  2 operations were pure point group operations)
 out of a pool of 24 trial point group operations.


The dynamic configuration has the point symmetry C_1h.
 The point group associated with its full space group is D_3h.


 Subroutine INISYM returns: Found 12 space group operations
 (whereof  2 operations are pure point group operations),
 and found     1 'primitive' translations

 
 
 KPOINTS: KPOINT_file_2                           
  k-points in reciprocal lattice
Space group operators:
 irot       det(A)        alpha          n_x          n_y          n_z        tau_x        tau_y        tau_z
    1     1.000000     0.000000     1.000000     0.000000     0.000000     0.000000     0.000000     0.000000
    2    -1.000000   180.000000     0.000000     0.000000     1.000000     0.000000     0.000000     0.000000
    3    -1.000000    60.000000     0.000000     0.000000    -1.000000     0.400000     0.600000     0.000000
    4     1.000000   120.000000     0.000000     0.000000    -1.000000     0.600000     0.200000     0.000000
    5     1.000000   120.000000     0.000000     0.000000     1.000000     0.400000     0.600000     0.000000
    6    -1.000000    60.000000     0.000000     0.000000     1.000000     0.600000     0.200000     0.000000
    7    -1.000000   180.000000     1.000000     0.000000     0.000000     0.400000     0.000000     0.000000
    8     1.000000   180.000000     0.866025    -0.500000     0.000000     0.600000     0.600000     0.000000
    9    -1.000000   180.000000     0.500000    -0.866025     0.000000     0.000000     0.200000     0.000000
   10     1.000000   180.000000     0.000000     1.000000     0.000000     0.400000     0.000000     0.000000
   11    -1.000000   180.000000    -0.500000    -0.866025     0.000000     0.600000     0.600000     0.000000
   12     1.000000   180.000000     0.866025     0.500000     0.000000     0.000000     0.200000     0.000000


--------------------------------------------------------------------------------------------------------




 Dimension of arrays:
   k-points           NKPTS =     51   k-points in BZ     NKDIM =     51   number of bands    NBANDS=    124
   number of dos      NEDOS =    301   number of ions     NIONS =     49
   non local maximal  LDIM  =      4   non local SUM 2l+1 LMDIM =      8
   total plane-waves  NPLWV = 180000
   max r-space proj   IRMAX =   1318   max aug-charges    IRDMAX=   1821
   dimension x,y,z NGX =    60 NGY =   60 NGZ =   50
   dimension x,y,z NGXF=   120 NGYF=  120 NGZF=  100
   support grid    NGXF=   120 NGYF=  120 NGZF=  100
   ions per type =              49
   NGX,Y,Z   is equivalent  to a cutoff of   8.11,  8.11,  8.31 a.u.
   NGXF,Y,Z  is equivalent  to a cutoff of  16.22, 16.22, 16.62 a.u.

 SYSTEM =  vasp                                    
 POSCAR =  supercell                               

 Startparameter for this run:
   NWRITE =      2    write-flag & timer
   PREC   = normal    normal or accurate (medium, high low for compatibility)
   ISTART =      0    job   : 0-new  1-cont  2-samecut
   ICHARG =     11    charge: 1-file 2-atom 10-const
   ISPIN  =      1    spin polarized calculation?
   LNONCOLLINEAR =      F non collinear calculations
   LSORBIT =      F    spin-orbit coupling
   INIWAV =      1    electr: 0-lowe 1-rand  2-diag
   LASPH  =      F    aspherical Exc in radial PAW
   METAGGA=      F    non-selfconsistent MetaGGA calc.

 Electronic Relaxation 1
   ENCUT  =  400.0 eV  29.40 Ry    5.42 a.u.  20.06 20.06 16.31*2*pi/ulx,y,z
   ENINI  =  400.0     initial cutoff
   ENAUG  =  644.9 eV  augmentation charge cutoff
   NELM   =    200;   NELMIN=  2; NELMDL=  0     # of ELM steps 
   EDIFF  = 0.1E-05   stopping-criterion for ELM
   LREAL  =      T    real-space projection
   NLSPLINE    = F    spline interpolate recip. space projectors
   LCOMPAT=      F    compatible to vasp.4.4
   GGA_COMPAT  = T    GGA compatible to vasp.4.4-vasp.4.6
   LMAXPAW     = -100 max onsite density
   LMAXMIX     =    2 max onsite mixed and CHGCAR
   VOSKOWN=      0    Vosko Wilk Nusair interpolation
   ROPT   =   -0.00050
 Ionic relaxation
   EDIFFG = 0.1E-04   stopping-criterion for IOM
   NSW    =      0    number of steps for IOM
   NBLOCK =      1;   KBLOCK =      1    inner block; outer block 
   IBRION =     -1    ionic relax: 0-MD 1-quasi-New 2-CG
   NFREE  =      0    steps in history (QN), initial steepest desc. (CG)
   ISIF   =      2    stress and relaxation
   IWAVPR =     10    prediction:  0-non 1-charg 2-wave 3-comb
   ISYM   =      2    0-nonsym 1-usesym 2-fastsym
   LCORR  =      T    Harris-Foulkes like correction to forces

   POTIM  = 0.5000    time-step for ionic-motion
   TEIN   =    0.0    initial temperature
   TEBEG  =    0.0;   TEEND  =   0.0 temperature during run
   SMASS  =  -3.00    Nose mass-parameter (am)
   estimated Nose-frequenzy (Omega)   =  0.10E-29 period in steps =****** mass=  -0.346E-26a.u.
   SCALEE = 1.0000    scale energy and forces
   NPACO  =    256;   APACO  = 16.0  distance and # of slots for P.C.
   PSTRESS=    0.0 pullay stress

  Mass of Ions in am
   POMASS =  12.01
  Ionic Valenz
   ZVAL   =   4.00
  Atomic Wigner-Seitz radii
   RWIGS  =  -1.00
  virtual crystal weights 
   VCA    =   1.00
   NELECT =     196.0000    total number of electrons
   NUPDOWN=      -1.0000    fix difference up-down

 DOS related values:
   EMIN   =  10.00;   EMAX   =-10.00  energy-range for DOS
   EFERMI =   0.00
   ISMEAR =    -1;   SIGMA  =   0.02  broadening in eV -4-tet -1-fermi 0-gaus

 Electronic relaxation 2 (details)
   IALGO  =     68    algorithm
   LDIAG  =      T    sub-space diagonalisation (order eigenvalues)
   LSUBROT=      F    optimize rotation matrix (better conditioning)
   TURBO    =      0    0=normal 1=particle mesh
   IRESTART =      0    0=no restart 2=restart with 2 vectors
   NREBOOT  =      0    no. of reboots
   NMIN     =      0    reboot dimension
   EREF     =   0.00    reference energy to select bands
   IMIX   =      4    mixing-type and parameters
     AMIX     =   0.40;   BMIX     =  1.00
     AMIX_MAG =   1.60;   BMIX_MAG =  1.00
     AMIN     =   0.10
     WC   =   100.;   INIMIX=   1;  MIXPRE=   1;  MAXMIX= -45

 Intra band minimization:
   WEIMIN = 0.0000     energy-eigenvalue tresh-hold
   EBREAK =  0.20E-08  absolut break condition
   DEPER  =   0.30     relativ break condition  

   TIME   =   0.40     timestep for ELM

  volume/ion in A,a.u.               =      26.74       180.44
  Fermi-wavevector in a.u.,A,eV,Ry     =   0.869054  1.642273 10.275857  0.755254
  Thomas-Fermi vector in A             =   1.987821
 
 Write flags
   LWAVE        =      T    write WAVECAR
   LDOWNSAMPLE  =      F    k-point downsampling of WAVECAR
   LCHARG       =      F    write CHGCAR
   LVTOT        =      F    write LOCPOT, total local potential
   LVHAR        =      F    write LOCPOT, Hartree potential only
   LELF         =      F    write electronic localiz. function (ELF)
   LORBIT       =      0    0 simple, 1 ext, 2 COOP (PROOUT), +10 PAW based schemes


 Dipole corrections
   LMONO  =      F    monopole corrections only (constant potential shift)
   LDIPOL =      F    correct potential (dipole corrections)
   IDIPOL =      0    1-x, 2-y, 3-z, 4-all directions 
   EPSILON=  1.0000000 bulk dielectric constant

 Exchange correlation treatment:
   GGA     =    --    GGA type
   LEXCH   =     2    internal setting for exchange type
   VOSKOWN=      0    Vosko Wilk Nusair interpolation
   LHFCALC =     F    Hartree Fock is set to
   LHFONE  =     F    Hartree Fock one center treatment
   AEXX    =    0.0000 exact exchange contribution

 Linear response parameters
   LEPSILON=     F    determine dielectric tensor
   LRPA    =     F    only Hartree local field effects (RPA)
   LNABLA  =     F    use nabla operator in PAW spheres
   LVEL    =     F    velocity operator in full k-point grid
   LINTERFAST=   F  fast interpolation
   KINTER  =     0    interpolate to denser k-point grid
   CSHIFT  =0.1000    complex shift for real part using Kramers Kronig
   OMEGAMAX=  -1.0    maximum frequency
   DEG_THRESHOLD= 0.2000000E-02 threshold for treating states as degnerate
   RTIME   =   -0.100 relaxation time in fs
  (WPLASMAI=    0.000 imaginary part of plasma frequency in eV, 0.658/RTIME)
   DFIELD  = 0.0000000 0.0000000 0.0000000 field for delta impulse in time
 
 Orbital magnetization related:
   ORBITALMAG=     F  switch on orbital magnetization
   LCHIMAG   =     F  perturbation theory with respect to B field
   DQ        =  0.001000  dq finite difference perturbation B field
   LLRAUG    =     F  two centre corrections for induced B field



--------------------------------------------------------------------------------------------------------


 Static calculation
 charge density and potential remain constant during run
 non-spin polarized calculation
 RMM-DIIS sequential band-by-band and
  variant of blocked Davidson during initial phase
 perform sub-space diagonalisation
    before iterative eigenvector-optimisation
 no mixing
 using additional bands           26
 real space projection scheme for non local part
 calculate Harris-corrections to forces 
   (improved forces if not selfconsistent)
 use of overlap-Matrix (Vanderbilt PP)
 Fermi-smearing in eV        SIGMA  =   0.02


--------------------------------------------------------------------------------------------------------


  energy-cutoff  :      400.00
  volume of cell :     1310.21
      direct lattice vectors                 reciprocal lattice vectors
    12.300000000  0.000000000  0.000000000     0.081300813  0.046939046  0.000000000
    -6.150000000 10.652112467  0.000000000     0.000000000  0.093878093  0.000000000
     0.000000000  0.000000000 10.000000000     0.000000000  0.000000000  0.100000000

  length of vectors
    12.300000000 12.300000000 10.000000000     0.093878093  0.093878093  0.100000000


 
 k-points in units of 2pi/SCALE and weight: KPOINT_file_2                           
   0.06775068  0.11734762  0.00000000       0.020
   0.06910569  0.11969457  0.00000000       0.020
   0.07046070  0.12204152  0.00000000       0.020
   0.07181572  0.12438847  0.00000000       0.020
   0.07317073  0.12673542  0.00000000       0.020
   0.07452575  0.12908238  0.00000000       0.020
   0.07588076  0.13142933  0.00000000       0.020
   0.07723577  0.13377628  0.00000000       0.020
   0.07859079  0.13612323  0.00000000       0.020
   0.07994580  0.13847019  0.00000000       0.020
   0.08130081  0.14081714  0.00000000       0.020
   0.08265583  0.14316409  0.00000000       0.020
   0.08401084  0.14551104  0.00000000       0.020
   0.08536585  0.14785800  0.00000000       0.020
   0.08672087  0.15020495  0.00000000       0.020
   0.08807588  0.15255190  0.00000000       0.020
   0.08943089  0.15489885  0.00000000       0.020
   0.09078591  0.15724581  0.00000000       0.020
   0.09214092  0.15959276  0.00000000       0.020
   0.09349593  0.16193971  0.00000000       0.020
   0.09485095  0.16428666  0.00000000       0.020
   0.09620596  0.16663361  0.00000000       0.020
   0.09756098  0.16898057  0.00000000       0.020
   0.09891599  0.17132752  0.00000000       0.020
   0.10027100  0.17367447  0.00000000       0.020
   0.10162602  0.17602142  0.00000000       0.020
   0.10298103  0.17836838  0.00000000       0.020
   0.10433604  0.18071533  0.00000000       0.020
   0.10569106  0.18306228  0.00000000       0.020
   0.10704607  0.18540923  0.00000000       0.020
   0.10840108  0.18775619  0.00000000       0.020
   0.10975610  0.19010314  0.00000000       0.020
   0.11111111  0.19245009  0.00000000       0.020
   0.11246612  0.19479704  0.00000000       0.020
   0.11382114  0.19714399  0.00000000       0.020
   0.11517615  0.19949095  0.00000000       0.020
   0.11653117  0.20183790  0.00000000       0.020
   0.11788618  0.20418485  0.00000000       0.020
   0.11924119  0.20653180  0.00000000       0.020
   0.12059621  0.20887876  0.00000000       0.020
   0.12195122  0.21122571  0.00000000       0.020
   0.12330623  0.21357266  0.00000000       0.020
   0.12466125  0.21591961  0.00000000       0.020
   0.12601626  0.21826657  0.00000000       0.020
   0.12737127  0.22061352  0.00000000       0.020
   0.12872629  0.22296047  0.00000000       0.020
   0.13008130  0.22530742  0.00000000       0.020
   0.13143631  0.22765437  0.00000000       0.020
   0.13279133  0.23000133  0.00000000       0.020
   0.13414634  0.23234828  0.00000000       0.020
   0.13550136  0.23469523  0.00000000       0.020
 
 k-points in reciprocal lattice and weights: KPOINT_file_2                           
   0.83333333  0.83333333  0.00000000       0.020
   0.85000000  0.85000000  0.00000000       0.020
   0.86666667  0.86666667  0.00000000       0.020
   0.88333333  0.88333333  0.00000000       0.020
   0.90000000  0.90000000  0.00000000       0.020
   0.91666667  0.91666667  0.00000000       0.020
   0.93333333  0.93333333  0.00000000       0.020
   0.95000000  0.95000000  0.00000000       0.020
   0.96666667  0.96666667  0.00000000       0.020
   0.98333333  0.98333333  0.00000000       0.020
   1.00000000  1.00000000  0.00000000       0.020
   1.01666667  1.01666667  0.00000000       0.020
   1.03333333  1.03333333  0.00000000       0.020
   1.05000000  1.05000000  0.00000000       0.020
   1.06666667  1.06666667  0.00000000       0.020
   1.08333333  1.08333333  0.00000000       0.020
   1.10000000  1.10000000  0.00000000       0.020
   1.11666667  1.11666667  0.00000000       0.020
   1.13333333  1.13333333  0.00000000       0.020
   1.15000000  1.15000000  0.00000000       0.020
   1.16666667  1.16666667  0.00000000       0.020
   1.18333333  1.18333333  0.00000000       0.020
   1.20000000  1.20000000  0.00000000       0.020
   1.21666667  1.21666667  0.00000000       0.020
   1.23333333  1.23333333  0.00000000       0.020
   1.25000000  1.25000000  0.00000000       0.020
   1.26666667  1.26666667  0.00000000       0.020
   1.28333333  1.28333333  0.00000000       0.020
   1.30000000  1.30000000  0.00000000       0.020
   1.31666667  1.31666667  0.00000000       0.020
   1.33333333  1.33333333  0.00000000       0.020
   1.35000000  1.35000000  0.00000000       0.020
   1.36666667  1.36666667  0.00000000       0.020
   1.38333333  1.38333333  0.00000000       0.020
   1.40000000  1.40000000  0.00000000       0.020
   1.41666667  1.41666667  0.00000000       0.020
   1.43333333  1.43333333  0.00000000       0.020
   1.45000000  1.45000000  0.00000000       0.020
   1.46666667  1.46666667  0.00000000       0.020
   1.48333333  1.48333333  0.00000000       0.020
   1.50000000  1.50000000  0.00000000       0.020
   1.51666667  1.51666667  0.00000000       0.020
   1.53333333  1.53333333  0.00000000       0.020
   1.55000000  1.55000000  0.00000000       0.020
   1.56666667  1.56666667  0.00000000       0.020
   1.58333333  1.58333333  0.00000000       0.020
   1.60000000  1.60000000  0.00000000       0.020
   1.61666667  1.61666667  0.00000000       0.020
   1.63333333  1.63333333  0.00000000       0.020
   1.65000000  1.65000000  0.00000000       0.020
   1.66666667  1.66666667  0.00000000       0.020
 
 position of ions in fractional coordinates (direct lattice) 
   0.00000000  0.00000000  0.50000000
   0.20000000  0.00000000  0.50000000
   0.40000000  0.00000000  0.50000000
   0.60000000  0.00000000  0.50000000
   0.80000000  0.00000000  0.50000000
   0.00000000  0.20000000  0.50000000
   0.20000000  0.20000000  0.50000000
   0.40000000  0.20000000  0.50000000
   0.60000000  0.20000000  0.50000000
   0.80000000  0.20000000  0.50000000
   0.00000000  0.40000000  0.50000000
   0.20000000  0.40000000  0.50000000
   0.40000000  0.40000000  0.50000000
   0.60000000  0.40000000  0.50000000
   0.80000000  0.40000000  0.50000000
   0.00000000  0.60000000  0.50000000
   0.20000000  0.60000000  0.50000000
   0.40000000  0.60000000  0.50000000
   0.60000000  0.60000000  0.50000000
   0.80000000  0.60000000  0.50000000
   0.00000000  0.80000000  0.50000000
   0.20000000  0.80000000  0.50000000
   0.40000000  0.80000000  0.50000000
   0.60000000  0.80000000  0.50000000
   0.80000000  0.80000000  0.50000000
   0.13333333  0.06666667  0.50000000
   0.33333333  0.06666667  0.50000000
   0.53333333  0.06666667  0.50000000
   0.73333333  0.06666667  0.50000000
   0.93333333  0.06666667  0.50000000
   0.13333333  0.26666667  0.50000000
   0.53333333  0.26666667  0.50000000
   0.73333333  0.26666667  0.50000000
   0.93333333  0.26666667  0.50000000
   0.13333333  0.46666667  0.50000000
   0.33333333  0.46666667  0.50000000
   0.53333333  0.46666667  0.50000000
   0.73333333  0.46666667  0.50000000
   0.93333333  0.46666667  0.50000000
   0.13333333  0.66666667  0.50000000
   0.33333333  0.66666667  0.50000000
   0.53333333  0.66666667  0.50000000
   0.73333333  0.66666667  0.50000000
   0.93333333  0.66666667  0.50000000
   0.13333333  0.86666667  0.50000000
   0.33333333  0.86666667  0.50000000
   0.53333333  0.86666667  0.50000000
   0.73333333  0.86666667  0.50000000
   0.93333333  0.86666667  0.50000000
 
 position of ions in cartesian coordinates  (Angst):
   0.00000000  0.00000000  5.00000000
   2.46000000  0.00000000  5.00000000
   4.92000000  0.00000000  5.00000000
   7.38000000  0.00000000  5.00000000
   9.84000000  0.00000000  5.00000000
  -1.23000000  2.13042249  5.00000000
   1.23000000  2.13042249  5.00000000
   3.69000000  2.13042249  5.00000000
   6.15000000  2.13042249  5.00000000
   8.61000000  2.13042249  5.00000000
  -2.46000000  4.26084499  5.00000000
   0.00000000  4.26084499  5.00000000
   2.46000000  4.26084499  5.00000000
   4.92000000  4.26084499  5.00000000
   7.38000000  4.26084499  5.00000000
  -3.69000000  6.39126748  5.00000000
  -1.23000000  6.39126748  5.00000000
   1.23000000  6.39126748  5.00000000
   3.69000000  6.39126748  5.00000000
   6.15000000  6.39126748  5.00000000
  -4.92000000  8.52168997  5.00000000
  -2.46000000  8.52168997  5.00000000
   0.00000000  8.52168997  5.00000000
   2.46000000  8.52168997  5.00000000
   4.92000000  8.52168997  5.00000000
   1.23000000  0.71014083  5.00000000
   3.69000000  0.71014083  5.00000000
   6.15000000  0.71014083  5.00000000
   8.61000000  0.71014083  5.00000000
  11.07000000  0.71014083  5.00000000
   0.00000000  2.84056332  5.00000000
   4.92000000  2.84056332  5.00000000
   7.38000000  2.84056332  5.00000000
   9.84000000  2.84056332  5.00000000
  -1.23000000  4.97098582  5.00000000
   1.23000000  4.97098582  5.00000000
   3.69000000  4.97098582  5.00000000
   6.15000000  4.97098582  5.00000000
   8.61000000  4.97098582  5.00000000
  -2.46000000  7.10140831  5.00000000
   0.00000000  7.10140831  5.00000000
   2.46000000  7.10140831  5.00000000
   4.92000000  7.10140831  5.00000000
   7.38000000  7.10140831  5.00000000
  -3.69000000  9.23183080  5.00000000
  -1.23000000  9.23183080  5.00000000
   1.23000000  9.23183080  5.00000000
   3.69000000  9.23183080  5.00000000
   6.15000000  9.23183080  5.00000000
 


--------------------------------------------------------------------------------------------------------


 k-point  1 :   0.8333 0.8333 0.0000  plane waves:   23790
 k-point  2 :   0.8500 0.8500 0.0000  plane waves:   23782
 k-point  3 :   0.8667 0.8667 0.0000  plane waves:   23778
 k-point  4 :   0.8833 0.8833 0.0000  plane waves:   23760
 k-point  5 :   0.9000 0.9000 0.0000  plane waves:   23770
 k-point  6 :   0.9167 0.9167 0.0000  plane waves:   23766
 k-point  7 :   0.9333 0.9333 0.0000  plane waves:   23756
 k-point  8 :   0.9500 0.9500 0.0000  plane waves:   23746
 k-point  9 :   0.9667 0.9667 0.0000  plane waves:   23786
 k-point 10 :   0.9833 0.9833 0.0000  plane waves:   23779
 k-point 11 :   1.0000 1.0000 0.0000  plane waves:   23799
 k-point 12 :   1.0167 1.0167 0.0000  plane waves:   23779
 k-point 13 :   1.0333 1.0333 0.0000  plane waves:   23786
 k-point 14 :   1.0500 1.0500 0.0000  plane waves:   23746
 k-point 15 :   1.0667 1.0667 0.0000  plane waves:   23756
 k-point 16 :   1.0833 1.0833 0.0000  plane waves:   23766
 k-point 17 :   1.1000 1.1000 0.0000  plane waves:   23770
 k-point 18 :   1.1167 1.1167 0.0000  plane waves:   23760
 k-point 19 :   1.1333 1.1333 0.0000  plane waves:   23778
 k-point 20 :   1.1500 1.1500 0.0000  plane waves:   23782
 k-point 21 :   1.1667 1.1667 0.0000  plane waves:   23790
 k-point 22 :   1.1833 1.1833 0.0000  plane waves:   23808
 k-point 23 :   1.2000 1.2000 0.0000  plane waves:   23818
 k-point 24 :   1.2167 1.2167 0.0000  plane waves:   23826
 k-point 25 :   1.2333 1.2333 0.0000  plane waves:   23818
 k-point 26 :   1.2500 1.2500 0.0000  plane waves:   23820
 k-point 27 :   1.2667 1.2667 0.0000  plane waves:   23824
 k-point 28 :   1.2833 1.2833 0.0000  plane waves:   23826
 k-point 29 :   1.3000 1.3000 0.0000  plane waves:   23846
 k-point 30 :   1.3167 1.3167 0.0000  plane waves:   23850
 k-point 31 :   1.3333 1.3333 0.0000  plane waves:   23826
 k-point 32 :   1.3500 1.3500 0.0000  plane waves:   23856
 k-point 33 :   1.3667 1.3667 0.0000  plane waves:   23856
 k-point 34 :   1.3833 1.3833 0.0000  plane waves:   23840
 k-point 35 :   1.4000 1.4000 0.0000  plane waves:   23850
 k-point 36 :   1.4167 1.4167 0.0000  plane waves:   23846
 k-point 37 :   1.4333 1.4333 0.0000  plane waves:   23822
 k-point 38 :   1.4500 1.4500 0.0000  plane waves:   23814
 k-point 39 :   1.4667 1.4667 0.0000  plane waves:   23812
 k-point 40 :   1.4833 1.4833 0.0000  plane waves:   23814
 k-point 41 :   1.5000 1.5000 0.0000  plane waves:   23830
 k-point 42 :   1.5167 1.5167 0.0000  plane waves:   23814
 k-point 43 :   1.5333 1.5333 0.0000  plane waves:   23812
 k-point 44 :   1.5500 1.5500 0.0000  plane waves:   23814
 k-point 45 :   1.5667 1.5667 0.0000  plane waves:   23822
 k-point 46 :   1.5833 1.5833 0.0000  plane waves:   23846
 k-point 47 :   1.6000 1.6000 0.0000  plane waves:   23850
 k-point 48 :   1.6167 1.6167 0.0000  plane waves:   23840
 k-point 49 :   1.6333 1.6333 0.0000  plane waves:   23856
 k-point 50 :   1.6500 1.6500 0.0000  plane waves:   23856
 k-point 51 :   1.6667 1.6667 0.0000  plane waves:   23826

 maximum and minimum number of plane-waves per node :     23856    23746

 maximum number of plane-waves:     23856
 maximum index in each direction: 
   IXMAX=   19   IYMAX=   19   IZMAX=   16
   IXMIN=  -21   IYMIN=  -21   IZMIN=  -16


 serial   3D FFT for wavefunctions
 parallel 3D FFT for charge:
    minimum data exchange during FFTs selected (reduces bandwidth)


 total amount of memory used by VASP MPI-rank0   686551. kBytes
=======================================================================

   base      :      30000. kBytes
   nonlr-proj:       5203. kBytes
   fftplans  :      13053. kBytes
   grid      :      24768. kBytes
   one-center:        150. kBytes
   wavefun   :     613377. kBytes
 
     INWAV:  cpu time    0.0000: real time    0.0044
 initial charge density was supplied:
 number of electron     195.9999579 magnetization 
 keeping initial charge density in first step


--------------------------------------------------------------------------------------------------------


 Maximum index for non-local projection operator         1207
 Maximum index for augmentation-charges          367 (set IRDMAX)


--------------------------------------------------------------------------------------------------------


 First call to EWALD:  gamma=   0.162
 Maximum number of real-space cells 3x 3x 3
 Maximum number of reciprocal cells 3x 3x 3

    FEWALD:  cpu time    0.0046: real time    0.0123


----------------------------------------- Iteration    1(   1)  ---------------------------------------


    POTLOK:  cpu time    0.0583: real time    0.1120
    SETDIJ:  cpu time    0.0083: real time    0.0195
     EDDAV:  cpu time   24.7445: real time   49.7617
       DOS:  cpu time    0.0010: real time    0.0010
    --------------------------------------------
      LOOP:  cpu time   24.8142: real time   49.8965

 eigenvalue-minimisations  : 12896
 total energy-change (2. order) : 0.1248073E+04  (-0.6904856E+04)
 number of electron     195.9999579 magnetization 
 augmentation part      195.9999579 magnetization 

 Free energy of the ion-electron system (eV)
  ---------------------------------------------------
  alpha Z        PSCENC =       138.85708194
  Ewald energy   TEWEN  =      9130.28498459
  -Hartree energ DENC   =    -15507.95981469
  -exchange      EXHF   =         0.00000000
  -V(xc)+E(xc)   XCENC  =       707.36475670
  PAW double counting   =      3406.89119115    -3469.63674197
  entropy T*S    EENTRO =        -0.01603062
  eigenvalues    EBANDS =      -343.99373057
  atomic energy  EATOM  =      7186.28135141
  Solvation  Ediel_sol  =         0.00000000
  ---------------------------------------------------
  free energy    TOTEN  =      1248.07304794 eV

  energy without entropy =     1248.08907856  energy(sigma->0) =     1248.08106325


--------------------------------------------------------------------------------------------------------




----------------------------------------- Iteration    1(   2)  ---------------------------------------


     EDDAV:  cpu time   38.9681: real time   78.3015
       DOS:  cpu time    0.0010: real time    0.0008
    --------------------------------------------
      LOOP:  cpu time   38.9694: real time   78.3027

 eigenvalue-minimisations  : 18312
 total energy-change (2. order) :-0.1501999E+04  (-0.1421767E+04)
 number of electron     195.9999579 magnetization 
 augmentation part      195.9999579 magnetization 

 Free energy of the ion-electron system (eV)
  ---------------------------------------------------
  alpha Z        PSCENC =       138.85708194
  Ewald energy   TEWEN  =      9130.28498459
  -Hartree energ DENC   =    -15507.95981469
  -exchange      EXHF   =         0.00000000
  -V(xc)+E(xc)   XCENC  =       707.36475670
  PAW double counting   =      3406.89119115    -3469.63674197
  entropy T*S    EENTRO =        -0.00293828
  eigenvalues    EBANDS =     -1846.00580801
  atomic energy  EATOM  =      7186.28135141
  Solvation  Ediel_sol  =         0.00000000
  ---------------------------------------------------
  free energy    TOTEN  =      -253.92593716 eV

  energy without entropy =     -253.92299888  energy(sigma->0) =     -253.92446802


--------------------------------------------------------------------------------------------------------




----------------------------------------- Iteration    1(   3)  ---------------------------------------


     EDDAV:  cpu time   27.2079: real time   54.4770
       DOS:  cpu time    0.0012: real time    0.0012
    --------------------------------------------
      LOOP:  cpu time   27.2094: real time   54.4786

 eigenvalue-minimisations  : 15200
 total energy-change (2. order) :-0.2252084E+03  (-0.2231822E+03)
 number of electron     195.9999579 magnetization 
 augmentation part      195.9999579 magnetization 

 Free energy of the ion-electron system (eV)
  ---------------------------------------------------
  alpha Z        PSCENC =       138.85708194
  Ewald energy   TEWEN  =      9130.28498459
  -Hartree energ DENC   =    -15507.95981469
  -exchange      EXHF   =         0.00000000
  -V(xc)+E(xc)   XCENC  =       707.36475670
  PAW double counting   =      3406.89119115    -3469.63674197
  entropy T*S    EENTRO =        -0.01432679
  eigenvalues    EBANDS =     -2071.20279844
  atomic energy  EATOM  =      7186.28135141
  Solvation  Ediel_sol  =         0.00000000
  ---------------------------------------------------
  free energy    TOTEN  =      -479.13431610 eV

  energy without entropy =     -479.11998931  energy(sigma->0) =     -479.12715270


--------------------------------------------------------------------------------------------------------




----------------------------------------- Iteration    1(   4)  ---------------------------------------


     EDDAV:  cpu time   27.3024: real time   54.6508
       DOS:  cpu time    0.0009: real time    0.0009
    --------------------------------------------
      LOOP:  cpu time   27.3036: real time   54.6520

 eigenvalue-minimisations  : 15272
 total energy-change (2. order) :-0.6810991E+01  (-0.6752793E+01)
 number of electron     195.9999579 magnetization 
 augmentation part      195.9999579 magnetization 

 Free energy of the ion-electron system (eV)
  ---------------------------------------------------
  alpha Z        PSCENC =       138.85708194
  Ewald energy   TEWEN  =      9130.28498459
  -Hartree energ DENC   =    -15507.95981469
  -exchange      EXHF   =         0.00000000
  -V(xc)+E(xc)   XCENC  =       707.36475670
  PAW double counting   =      3406.89119115    -3469.63674197
  entropy T*S    EENTRO =        -0.02297222
  eigenvalues    EBANDS =     -2078.00514376
  atomic energy  EATOM  =      7186.28135141
  Solvation  Ediel_sol  =         0.00000000
  ---------------------------------------------------
  free energy    TOTEN  =      -485.94530684 eV

  energy without entropy =     -485.92233463  energy(sigma->0) =     -485.93382074


--------------------------------------------------------------------------------------------------------




----------------------------------------- Iteration    1(   5)  ---------------------------------------


     EDDAV:  cpu time   31.0546: real time   62.2564
       DOS:  cpu time    0.0048: real time    0.0068
    --------------------------------------------
      LOOP:  cpu time   31.0598: real time   62.2636

 eigenvalue-minimisations  : 16676
 total energy-change (2. order) :-0.2102174E+00  (-0.2097587E+00)
 number of electron     195.9999579 magnetization 
 augmentation part      195.9999579 magnetization 

 Free energy of the ion-electron system (eV)
  ---------------------------------------------------
  alpha Z        PSCENC =       138.85708194
  Ewald energy   TEWEN  =      9130.28498459
  -Hartree energ DENC   =    -15507.95981469
  -exchange      EXHF   =         0.00000000
  -V(xc)+E(xc)   XCENC  =       707.36475670
  PAW double counting   =      3406.89119115    -3469.63674197
  entropy T*S    EENTRO =        -0.02334845
  eigenvalues    EBANDS =     -2078.21498491
  atomic energy  EATOM  =      7186.28135141
  Solvation  Ediel_sol  =         0.00000000
  ---------------------------------------------------
  free energy    TOTEN  =      -486.15552423 eV

  energy without entropy =     -486.13217578  energy(sigma->0) =     -486.14385000


--------------------------------------------------------------------------------------------------------




----------------------------------------- Iteration    1(   6)  ---------------------------------------


    EDDIAG:  cpu time    4.1028: real time    8.2242
  RMM-DIIS:  cpu time    6.7742: real time   13.5873
    ORTHCH:  cpu time    1.9736: real time    3.9468
       DOS:  cpu time    0.0014: real time    0.0046
    --------------------------------------------
      LOOP:  cpu time   12.8526: real time   25.7634

 eigenvalue-minimisations  : 13784
 total energy-change (2. order) :-0.5426416E-02  (-0.5426350E-02)
 number of electron     195.9999579 magnetization 
 augmentation part      195.9999579 magnetization 

 Free energy of the ion-electron system (eV)
  ---------------------------------------------------
  alpha Z        PSCENC =       138.85708194
  Ewald energy   TEWEN  =      9130.28498459
  -Hartree energ DENC   =    -15507.95981469
  -exchange      EXHF   =         0.00000000
  -V(xc)+E(xc)   XCENC  =       707.36475670
  PAW double counting   =      3406.89119115    -3469.63674197
  entropy T*S    EENTRO =        -0.02335714
  eigenvalues    EBANDS =     -2078.22040264
  atomic energy  EATOM  =      7186.28135141
  Solvation  Ediel_sol  =         0.00000000
  ---------------------------------------------------
  free energy    TOTEN  =      -486.16095065 eV

  energy without entropy =     -486.13759351  energy(sigma->0) =     -486.14927208


--------------------------------------------------------------------------------------------------------




----------------------------------------- Iteration    1(   7)  ---------------------------------------


    EDDIAG:  cpu time    3.8469: real time    7.7007
  RMM-DIIS:  cpu time    8.7122: real time   17.4457
    ORTHCH:  cpu time    3.5843: real time    7.2707
       DOS:  cpu time    0.0000: real time    0.0008
    --------------------------------------------
      LOOP:  cpu time   16.1447: real time   32.4184

 eigenvalue-minimisations  : 19600
 total energy-change (2. order) :-0.6892895E-03  (-0.6832242E-03)
 number of electron     195.9999579 magnetization 
 augmentation part      195.9999579 magnetization 

 Free energy of the ion-electron system (eV)
  ---------------------------------------------------
  alpha Z        PSCENC =       138.85708194
  Ewald energy   TEWEN  =      9130.28498459
  -Hartree energ DENC   =    -15507.95981469
  -exchange      EXHF   =         0.00000000
  -V(xc)+E(xc)   XCENC  =       707.36475670
  PAW double counting   =      3406.89119115    -3469.63674197
  entropy T*S    EENTRO =        -0.02335945
  eigenvalues    EBANDS =     -2078.22108962
  atomic energy  EATOM  =      7186.28135141
  Solvation  Ediel_sol  =         0.00000000
  ---------------------------------------------------
  free energy    TOTEN  =      -486.16163994 eV

  energy without entropy =     -486.13828049  energy(sigma->0) =     -486.14996021


--------------------------------------------------------------------------------------------------------




----------------------------------------- Iteration    1(   8)  ---------------------------------------


    EDDIAG:  cpu time    5.5905: real time   11.2518
  RMM-DIIS:  cpu time    8.1615: real time   16.3379
    ORTHCH:  cpu time    1.9966: real time    4.0075
       DOS:  cpu time    0.0009: real time    0.0012
    --------------------------------------------
      LOOP:  cpu time   15.7506: real time   31.5988

 eigenvalue-minimisations  : 16623
 total energy-change (2. order) :-0.6649148E-05  (-0.7141572E-05)
 number of electron     195.9999579 magnetization 
 augmentation part      195.9999579 magnetization 

 Free energy of the ion-electron system (eV)
  ---------------------------------------------------
  alpha Z        PSCENC =       138.85708194
  Ewald energy   TEWEN  =      9130.28498459
  -Hartree energ DENC   =    -15507.95981469
  -exchange      EXHF   =         0.00000000
  -V(xc)+E(xc)   XCENC  =       707.36475670
  PAW double counting   =      3406.89119115    -3469.63674197
  entropy T*S    EENTRO =        -0.02335968
  eigenvalues    EBANDS =     -2078.22109603
  atomic energy  EATOM  =      7186.28135141
  Solvation  Ediel_sol  =         0.00000000
  ---------------------------------------------------
  free energy    TOTEN  =      -486.16164658 eV

  energy without entropy =     -486.13828690  energy(sigma->0) =     -486.14996674


--------------------------------------------------------------------------------------------------------




----------------------------------------- Iteration    1(   9)  ---------------------------------------


    EDDIAG:  cpu time    3.9413: real time    7.8945
  RMM-DIIS:  cpu time    5.0434: real time   10.0980
    ORTHCH:  cpu time    1.9592: real time    3.9310
       DOS:  cpu time    0.0032: real time    0.0089
    --------------------------------------------
      LOOP:  cpu time   10.9477: real time   21.9330

 eigenvalue-minimisations  : 10557
 total energy-change (2. order) :-0.3856858E-06  (-0.3781156E-06)
 number of electron     195.9999579 magnetization 
 augmentation part      195.9999579 magnetization 

 Free energy of the ion-electron system (eV)
  ---------------------------------------------------
  alpha Z        PSCENC =       138.85708194
  Ewald energy   TEWEN  =      9130.28498459
  -Hartree energ DENC   =    -15507.95981469
  -exchange      EXHF   =         0.00000000
  -V(xc)+E(xc)   XCENC  =       707.36475670
  PAW double counting   =      3406.89119115    -3469.63674197
  entropy T*S    EENTRO =        -0.02335970
  eigenvalues    EBANDS =     -2078.22109641
  atomic energy  EATOM  =      7186.28135141
  Solvation  Ediel_sol  =         0.00000000
  ---------------------------------------------------
  free energy    TOTEN  =      -486.16164697 eV

  energy without entropy =     -486.13828727  energy(sigma->0) =     -486.14996712


--------------------------------------------------------------------------------------------------------




 average (electrostatic) potential at core
  the test charge radii are     0.6991
  (the norm of the test charge is              1.0000)
       1 -61.3452       2 -61.0371       3 -61.3453       4 -61.1771       5 -61.1771
       6 -61.3452       7 -61.9532       8 -61.9534       9 -61.3453      10 -61.1942
      11 -61.0883      12 -61.0370      13 -61.9532      14 -61.0371      15 -61.0884
      16 -60.9669      17 -61.0883      18 -61.3452      19 -61.3452      20 -61.0883
      21 -61.0883      22 -61.0884      23 -61.1942      24 -61.1771      25 -61.1942
      26 -61.4061      27 -61.4062      28 -61.2215      29 -61.1799      30 -61.2214
      31 -61.4061      32 -61.4062      33 -61.2090      34 -61.2089      35 -61.1206
      36 -61.4061      37 -61.4061      38 -61.1207      39 -61.0920      40 -61.0920
      41 -61.2089      42 -61.2214      43 -61.2089      44 -61.0920      45 -61.1207
      46 -61.2090      47 -61.1799      48 -61.1799      49 -61.2089
 
 
 
 E-fermi :  -1.6971     XC(G=0):  -4.3486     alpha+bet : -3.8195


 k-point     1 :       0.8333    0.8333    0.0000
  band No.  band energies     occupation 
      1     -20.8106      2.00000
      2     -20.3884      2.00000
      3     -20.2910      2.00000
      4     -19.9204      2.00000
      5     -19.7954      2.00000
      6     -19.4551      2.00000
      7     -19.2636      2.00000
      8     -18.9200      2.00000
      9     -18.5035      2.00000
     10     -18.3937      2.00000
     11     -18.0820      2.00000
     12     -17.8714      2.00000
     13     -17.5978      2.00000
     14     -17.4864      2.00000
     15     -17.1956      2.00000
     16     -17.1079      2.00000
     17     -16.7993      2.00000
     18     -16.3266      2.00000
     19     -16.0172      2.00000
     20     -15.9062      2.00000
     21     -15.7584      2.00000
     22     -15.4378      2.00000
     23     -15.4025      2.00000
     24     -14.9037      2.00000
     25     -14.4507      2.00000
     26     -14.3096      2.00000
     27     -13.9377      2.00000
     28     -13.8345      2.00000
     29     -13.5926      2.00000
     30     -13.5375      2.00000
     31     -13.4513      2.00000
     32     -13.2278      2.00000
     33     -12.9238      2.00000
     34     -12.6095      2.00000
     35     -12.1207      2.00000
     36     -11.5880      2.00000
     37     -11.5251      2.00000
     38     -11.4227      2.00000
     39     -11.3443      2.00000
     40     -11.1704      2.00000
     41     -11.0002      2.00000
     42     -10.7557      2.00000
     43     -10.4550      2.00000
     44     -10.1288      2.00000
     45     -10.0333      2.00000
     46      -9.7845      2.00000
     47      -9.6046      2.00000
     48      -9.4260      2.00000
     49      -9.2595      2.00000
     50      -9.2313      2.00000
     51      -9.0966      2.00000
     52      -9.0273      2.00000
     53      -8.8291      2.00000
     54      -8.7938      2.00000
     55      -8.5859      2.00000
     56      -8.4717      2.00000
     57      -8.3430      2.00000
     58      -8.2685      2.00000
     59      -8.1189      2.00000
     60      -8.0935      2.00000
     61      -8.0774      2.00000
     62      -8.0235      2.00000
     63      -7.8999      2.00000
     64      -7.8928      2.00000
     65      -7.8831      2.00000
     66      -7.6741      2.00000
     67      -7.6579      2.00000
     68      -7.4809      2.00000
     69      -7.2920      2.00000
     70      -7.2345      2.00000
     71      -7.0410      2.00000
     72      -6.8583      2.00000
     73      -6.8473      2.00000
     74      -6.6487      2.00000
     75      -6.5557      2.00000
     76      -6.4033      2.00000
     77      -6.3888      2.00000
     78      -6.2759      2.00000
     79      -5.9710      2.00000
     80      -5.9149      2.00000
     81      -5.8467      2.00000
     82      -5.7396      2.00000
     83      -5.6254      2.00000
     84      -5.3712      2.00000
     85      -5.2663      2.00000
     86      -5.1014      2.00000
     87      -5.0157      2.00000
     88      -4.9498      2.00000
     89      -4.9211      2.00000
     90      -4.6308      2.00000
     91      -4.2603      2.00000
     92      -4.0195      2.00000
     93      -3.7151      2.00000
     94      -3.6001      2.00000
     95      -3.3836      2.00000
     96      -3.1553      2.00000
     97      -2.6385      2.00000
     98      -1.8910      1.99988
     99      -1.6507      0.17907
    100      -1.6063      0.02112
    101      -0.6455      0.00000
    102      -0.0151      0.00000
    103       0.0264      0.00000
    104       0.1593      0.00000
    105       0.3424      0.00000
    106       0.4606      0.00000
    107       0.5690      0.00000
    108       1.0731      0.00000
    109       1.5978      0.00000
    110       1.7961      0.00000
    111       1.9099      0.00000
    112       2.1348      0.00000
    113       2.5173      0.00000
    114       2.5221      0.00000
    115       2.5898      0.00000
    116       2.7471      0.00000
    117       2.9192      0.00000
    118       3.1838      0.00000
    119       3.2171      0.00000
    120       3.5819      0.00000
    121       3.8179      0.00000
    122       3.9293      0.00000
    123       4.1329      0.00000
    124       4.3427      0.00000

 k-point     2 :       0.8500    0.8500    0.0000
  band No.  band energies     occupation 
      1     -20.8242      2.00000
      2     -20.3568      2.00000
      3     -20.2655      2.00000
      4     -19.9349      2.00000
      5     -19.8137      2.00000
      6     -19.5156      2.00000
      7     -19.3023      2.00000
      8     -18.8539      2.00000
      9     -18.4729      2.00000
     10     -18.3596      2.00000
     11     -18.0073      2.00000
     12     -17.8334      2.00000
     13     -17.6546      2.00000
     14     -17.5298      2.00000
     15     -17.2629      2.00000
     16     -17.1218      2.00000
     17     -16.8437      2.00000
     18     -16.4219      2.00000
     19     -16.0609      2.00000
     20     -15.7986      2.00000
     21     -15.6789      2.00000
     22     -15.3840      2.00000
     23     -15.3532      2.00000
     24     -14.8887      2.00000
     25     -14.4570      2.00000
     26     -14.3018      2.00000
     27     -13.8618      2.00000
     28     -13.8036      2.00000
     29     -13.6591      2.00000
     30     -13.6061      2.00000
     31     -13.4996      2.00000
     32     -13.3055      2.00000
     33     -12.9615      2.00000
     34     -12.6201      2.00000
     35     -12.1643      2.00000
     36     -11.6498      2.00000
     37     -11.4816      2.00000
     38     -11.3180      2.00000
     39     -11.2751      2.00000
     40     -11.1555      2.00000
     41     -10.9714      2.00000
     42     -10.7253      2.00000
     43     -10.4263      2.00000
     44     -10.1206      2.00000
     45      -9.9958      2.00000
     46      -9.8178      2.00000
     47      -9.6548      2.00000
     48      -9.4373      2.00000
     49      -9.3410      2.00000
     50      -9.2708      2.00000
     51      -9.1132      2.00000
     52      -9.0034      2.00000
     53      -8.8050      2.00000
     54      -8.7303      2.00000
     55      -8.5478      2.00000
     56      -8.4398      2.00000
     57      -8.3755      2.00000
     58      -8.3200      2.00000
     59      -8.1353      2.00000
     60      -8.0703      2.00000
     61      -8.0464      2.00000
     62      -8.0411      2.00000
     63      -7.9131      2.00000
     64      -7.8960      2.00000
     65      -7.8911      2.00000
     66      -7.6843      2.00000
     67      -7.6657      2.00000
     68      -7.5522      2.00000
     69      -7.3430      2.00000
     70      -7.2630      2.00000
     71      -7.0215      2.00000
     72      -6.8422      2.00000
     73      -6.7785      2.00000
     74      -6.6368      2.00000
     75      -6.5774      2.00000
     76      -6.3553      2.00000
     77      -6.3526      2.00000
     78      -6.2382      2.00000
     79      -6.0016      2.00000
     80      -5.8505      2.00000
     81      -5.8329      2.00000
     82      -5.6885      2.00000
     83      -5.6571      2.00000
     84      -5.4347      2.00000
     85      -5.3164      2.00000
     86      -5.0700      2.00000
     87      -5.0030      2.00000
     88      -4.9958      2.00000
     89      -4.9607      2.00000
     90      -4.6801      2.00000
     91      -4.3314      2.00000
     92      -4.0421      2.00000
     93      -3.6255      2.00000
     94      -3.5413      2.00000
     95      -3.3397      2.00000
     96      -3.1138      2.00000
     97      -2.6663      2.00000
     98      -1.9081      1.99995
     99      -1.6418      0.11847
    100      -1.6032      0.01815
    101      -0.5939      0.00000
    102      -0.0482      0.00000
    103      -0.0283      0.00000
    104       0.1101      0.00000
    105       0.2551      0.00000
    106       0.4732      0.00000
    107       0.6511      0.00000
    108       1.0917      0.00000
    109       1.6053      0.00000
    110       1.8437      0.00000
    111       1.8898      0.00000
    112       2.2273      0.00000
    113       2.5660      0.00000
    114       2.6093      0.00000
    115       2.6328      0.00000
    116       2.7213      0.00000
    117       2.7800      0.00000
    118       3.1635      0.00000
    119       3.1964      0.00000
    120       3.5510      0.00000
    121       3.7199      0.00000
    122       3.7943      0.00000
    123       3.8669      0.00000
    124       4.2693      0.00000

 k-point     3 :       0.8667    0.8667    0.0000
  band No.  band energies     occupation 
      1     -20.8364      2.00000
      2     -20.3238      2.00000
      3     -20.2391      2.00000
      4     -19.9479      2.00000
      5     -19.8320      2.00000
      6     -19.5746      2.00000
      7     -19.3406      2.00000
      8     -18.7841      2.00000
      9     -18.4409      2.00000
     10     -18.3256      2.00000
     11     -17.9324      2.00000
     12     -17.8059      2.00000
     13     -17.7086      2.00000
     14     -17.5644      2.00000
     15     -17.3297      2.00000
     16     -17.1343      2.00000
     17     -16.8842      2.00000
     18     -16.5171      2.00000
     19     -16.1106      2.00000
     20     -15.6918      2.00000
     21     -15.5933      2.00000
     22     -15.3378      2.00000
     23     -15.2965      2.00000
     24     -14.8775      2.00000
     25     -14.4657      2.00000
     26     -14.2901      2.00000
     27     -13.8463      2.00000
     28     -13.7588      2.00000
     29     -13.7311      2.00000
     30     -13.6518      2.00000
     31     -13.5443      2.00000
     32     -13.3535      2.00000
     33     -12.9922      2.00000
     34     -12.6296      2.00000
     35     -12.2106      2.00000
     36     -11.7730      2.00000
     37     -11.3898      2.00000
     38     -11.2739      2.00000
     39     -11.2086      2.00000
     40     -11.0810      2.00000
     41     -10.9250      2.00000
     42     -10.6894      2.00000
     43     -10.3963      2.00000
     44     -10.1281      2.00000
     45      -9.9696      2.00000
     46      -9.8455      2.00000
     47      -9.7036      2.00000
     48      -9.5032      2.00000
     49      -9.3771      2.00000
     50      -9.2949      2.00000
     51      -9.1284      2.00000
     52      -8.9964      2.00000
     53      -8.8063      2.00000
     54      -8.6268      2.00000
     55      -8.5080      2.00000
     56      -8.4577      2.00000
     57      -8.4069      2.00000
     58      -8.3130      2.00000
     59      -8.2026      2.00000
     60      -8.0567      2.00000
     61      -8.0332      2.00000
     62      -7.9937      2.00000
     63      -7.9331      2.00000
     64      -7.9015      2.00000
     65      -7.8837      2.00000
     66      -7.6931      2.00000
     67      -7.6733      2.00000
     68      -7.6219      2.00000
     69      -7.3932      2.00000
     70      -7.3015      2.00000
     71      -7.0171      2.00000
     72      -6.8303      2.00000
     73      -6.6954      2.00000
     74      -6.6844      2.00000
     75      -6.5321      2.00000
     76      -6.3148      2.00000
     77      -6.3092      2.00000
     78      -6.2003      2.00000
     79      -6.0291      2.00000
     80      -5.8611      2.00000
     81      -5.7502      2.00000
     82      -5.6877      2.00000
     83      -5.6435      2.00000
     84      -5.4965      2.00000
     85      -5.3614      2.00000
     86      -5.0806      2.00000
     87      -5.0398      2.00000
     88      -4.9778      2.00000
     89      -4.9773      2.00000
     90      -4.7231      2.00000
     91      -4.4056      2.00000
     92      -4.0695      2.00000
     93      -3.5395      2.00000
     94      -3.4825      2.00000
     95      -3.2956      2.00000
     96      -3.0771      2.00000
     97      -2.6984      2.00000
     98      -1.9193      1.99997
     99      -1.6327      0.07680
    100      -1.6004      0.01574
    101      -0.5453      0.00000
    102      -0.0857      0.00000
    103      -0.0774      0.00000
    104       0.0617      0.00000
    105       0.1721      0.00000
    106       0.4833      0.00000
    107       0.7407      0.00000
    108       1.1220      0.00000
    109       1.6109      0.00000
    110       1.8718      0.00000
    111       1.8750      0.00000
    112       2.3258      0.00000
    113       2.6118      0.00000
    114       2.6326      0.00000
    115       2.6777      0.00000
    116       2.6754      0.00000
    117       2.7392      0.00000
    118       3.1452      0.00000
    119       3.1782      0.00000
    120       3.5148      0.00000
    121       3.6359      0.00000
    122       3.6275      0.00000
    123       3.7239      0.00000
    124       4.3082      0.00000

 k-point     4 :       0.8833    0.8833    0.0000
  band No.  band energies     occupation 
      1     -20.8472      2.00000
      2     -20.2893      2.00000
      3     -20.2121      2.00000
      4     -19.9594      2.00000
      5     -19.8504      2.00000
      6     -19.6321      2.00000
      7     -19.3769      2.00000
      8     -18.7122      2.00000
      9     -18.4075      2.00000
     10     -18.2917      2.00000
     11     -17.8616      2.00000
     12     -17.7985      2.00000
     13     -17.7555      2.00000
     14     -17.5845      2.00000
     15     -17.3910      2.00000
     16     -17.1454      2.00000
     17     -16.9222      2.00000
     18     -16.6117      2.00000
     19     -16.1607      2.00000
     20     -15.5862      2.00000
     21     -15.5066      2.00000
     22     -15.2952      2.00000
     23     -15.2370      2.00000
     24     -14.8721      2.00000
     25     -14.4734      2.00000
     26     -14.2765      2.00000
     27     -13.8769      2.00000
     28     -13.8119      2.00000
     29     -13.7719      2.00000
     30     -13.6390      2.00000
     31     -13.5666      2.00000
     32     -13.3677      2.00000
     33     -13.0112      2.00000
     34     -12.6383      2.00000
     35     -12.2586      2.00000
     36     -11.8970      2.00000
     37     -11.3654      2.00000
     38     -11.2320      2.00000
     39     -11.1009      2.00000
     40     -10.9845      2.00000
     41     -10.8700      2.00000
     42     -10.6493      2.00000
     43     -10.3683      2.00000
     44     -10.1443      2.00000
     45      -9.9849      2.00000
     46      -9.8469      2.00000
     47      -9.7527      2.00000
     48      -9.5936      2.00000
     49      -9.4056      2.00000
     50      -9.2884      2.00000
     51      -9.1417      2.00000
     52      -8.9942      2.00000
     53      -8.8126      2.00000
     54      -8.5433      2.00000
     55      -8.5177      2.00000
     56      -8.4663      2.00000
     57      -8.3731      2.00000
     58      -8.3076      2.00000
     59      -8.2575      2.00000
     60      -8.0705      2.00000
     61      -8.0000      2.00000
     62      -7.9529      2.00000
     63      -7.9447      2.00000
     64      -7.9114      2.00000
     65      -7.8693      2.00000
     66      -7.7012      2.00000
     67      -7.6899      2.00000
     68      -7.6812      2.00000
     69      -7.4411      2.00000
     70      -7.3465      2.00000
     71      -7.0358      2.00000
     72      -6.8132      2.00000
     73      -6.7244      2.00000
     74      -6.6098      2.00000
     75      -6.4796      2.00000
     76      -6.2754      2.00000
     77      -6.2674      2.00000
     78      -6.1625      2.00000
     79      -6.0533      2.00000
     80      -5.8784      2.00000
     81      -5.7160      2.00000
     82      -5.6670      2.00000
     83      -5.6129      2.00000
     84      -5.5574      2.00000
     85      -5.3968      2.00000
     86      -5.1568      2.00000
     87      -5.0116      2.00000
     88      -4.9911      2.00000
     89      -4.9618      2.00000
     90      -4.7624      2.00000
     91      -4.4822      2.00000
     92      -4.0989      2.00000
     93      -3.4576      2.00000
     94      -3.4249      2.00000
     95      -3.2523      2.00000
     96      -3.0460      2.00000
     97      -2.7345      2.00000
     98      -1.9256      1.99998
     99      -1.6238      0.04989
    100      -1.5977      0.01381
    101      -0.4999      0.00000
    102      -0.1285      0.00000
    103      -0.1163      0.00000
    104       0.0160      0.00000
    105       0.0950      0.00000
    106       0.4905      0.00000
    107       0.8359      0.00000
    108       1.1635      0.00000
    109       1.6156      0.00000
    110       1.8560      0.00000
    111       1.8910      0.00000
    112       2.4140      0.00000
    113       2.5140      0.00000
    114       2.6570      0.00000
    115       2.6598      0.00000
    116       2.7246      0.00000
    117       2.8188      0.00000
    118       3.1290      0.00000
    119       3.1619      0.00000
    120       3.4479      0.00000
    121       3.5575      0.00000
    122       3.5597      0.00000
    123       3.6505      0.00000
    124       4.3693      0.00000

 k-point     5 :       0.9000    0.9000    0.0000
  band No.  band energies     occupation 
      1     -20.8566      2.00000
      2     -20.2533      2.00000
      3     -20.1845      2.00000
      4     -19.9693      2.00000
      5     -19.8692      2.00000
      6     -19.6880      2.00000
      7     -19.4104      2.00000
      8     -18.6388      2.00000
      9     -18.3728      2.00000
     10     -18.2582      2.00000
     11     -17.8432      2.00000
     12     -17.8109      2.00000
     13     -17.7534      2.00000
     14     -17.5942      2.00000
     15     -17.4358      2.00000
     16     -17.1551      2.00000
     17     -16.9590      2.00000
     18     -16.7055      2.00000
     19     -16.2081      2.00000
     20     -15.4829      2.00000
     21     -15.4216      2.00000
     22     -15.2539      2.00000
     23     -15.1784      2.00000
     24     -14.8740      2.00000
     25     -14.4781      2.00000
     26     -14.2631      2.00000
     27     -13.9369      2.00000
     28     -13.8857      2.00000
     29     -13.8083      2.00000
     30     -13.6987      2.00000
     31     -13.4881      2.00000
     32     -13.3640      2.00000
     33     -13.0132      2.00000
     34     -12.6463      2.00000
     35     -12.3082      2.00000
     36     -12.0205      2.00000
     37     -11.4028      2.00000
     38     -11.1315      2.00000
     39     -10.9939      2.00000
     40     -10.8881      2.00000
     41     -10.8103      2.00000
     42     -10.6060      2.00000
     43     -10.3447      2.00000
     44     -10.1674      2.00000
     45     -10.0313      2.00000
     46      -9.8432      2.00000
     47      -9.8072      2.00000
     48      -9.6764      2.00000
     49      -9.4288      2.00000
     50      -9.2656      2.00000
     51      -9.1533      2.00000
     52      -8.9937      2.00000
     53      -8.8224      2.00000
     54      -8.6214      2.00000
     55      -8.4375      2.00000
     56      -8.4229      2.00000
     57      -8.3385      2.00000
     58      -8.3253      2.00000
     59      -8.2601      2.00000
     60      -8.0828      2.00000
     61      -7.9734      2.00000
     62      -7.9690      2.00000
     63      -7.9175      2.00000
     64      -7.9008      2.00000
     65      -7.8533      2.00000
     66      -7.7563      2.00000
     67      -7.7096      2.00000
     68      -7.6897      2.00000
     69      -7.4856      2.00000
     70      -7.3954      2.00000
     71      -7.0829      2.00000
     72      -6.7936      2.00000
     73      -6.7449      2.00000
     74      -6.5227      2.00000
     75      -6.4267      2.00000
     76      -6.2344      2.00000
     77      -6.2301      2.00000
     78      -6.1247      2.00000
     79      -6.0741      2.00000
     80      -5.9021      2.00000
     81      -5.7417      2.00000
     82      -5.6217      2.00000
     83      -5.6094      2.00000
     84      -5.5796      2.00000
     85      -5.4185      2.00000
     86      -5.2207      2.00000
     87      -5.0028      2.00000
     88      -4.9858      2.00000
     89      -4.9478      2.00000
     90      -4.8001      2.00000
     91      -4.5607      2.00000
     92      -4.1286      2.00000
     93      -3.3810      2.00000
     94      -3.3685      2.00000
     95      -3.2109      2.00000
     96      -3.0213      2.00000
     97      -2.7740      2.00000
     98      -1.9281      1.99998
     99      -1.6154      0.03314
    100      -1.5954      0.01229
    101      -0.4577      0.00000
    102      -0.1699      0.00000
    103      -0.1525      0.00000
    104      -0.0266      0.00000
    105       0.0248      0.00000
    106       0.4948      0.00000
    107       0.9359      0.00000
    108       1.2148      0.00000
    109       1.6200      0.00000
    110       1.8422      0.00000
    111       1.8927      0.00000
    112       2.3704      0.00000
    113       2.4907      0.00000
    114       2.6759      0.00000
    115       2.7102      0.00000
    116       2.7735      0.00000
    117       2.9241      0.00000
    118       3.1153      0.00000
    119       3.1478      0.00000
    120       3.4807      0.00000
    121       3.5126      0.00000
    122       3.5633      0.00000
    123       4.1673      0.00000
    124       4.4164      0.00000

 k-point     6 :       0.9167    0.9167    0.0000
  band No.  band energies     occupation 
      1     -20.8646      2.00000
      2     -20.2160      2.00000
      3     -20.1566      2.00000
      4     -19.9776      2.00000
      5     -19.8885      2.00000
      6     -19.7422      2.00000
      7     -19.4400      2.00000
      8     -18.5644      2.00000
      9     -18.3368      2.00000
     10     -18.2256      2.00000
     11     -17.8843      2.00000
     12     -17.8494      2.00000
     13     -17.6832      2.00000
     14     -17.6156      2.00000
     15     -17.4464      2.00000
     16     -17.1635      2.00000
     17     -16.9955      2.00000
     18     -16.7982      2.00000
     19     -16.2512      2.00000
     20     -15.3830      2.00000
     21     -15.3402      2.00000
     22     -15.2135      2.00000
     23     -15.1225      2.00000
     24     -14.8835      2.00000
     25     -14.4801      2.00000
     26     -14.2510      2.00000
     27     -14.0069      2.00000
     28     -13.9612      2.00000
     29     -13.8379      2.00000
     30     -13.7674      2.00000
     31     -13.4180      2.00000
     32     -13.3342      2.00000
     33     -12.9957      2.00000
     34     -12.6540      2.00000
     35     -12.3592      2.00000
     36     -12.1425      2.00000
     37     -11.4467      2.00000
     38     -11.0207      2.00000
     39     -10.8884      2.00000
     40     -10.7968      2.00000
     41     -10.7480      2.00000
     42     -10.5609      2.00000
     43     -10.3280      2.00000
     44     -10.1969      2.00000
     45     -10.0884      2.00000
     46      -9.8969      2.00000
     47      -9.8391      2.00000
     48      -9.7399      2.00000
     49      -9.4295      2.00000
     50      -9.2382      2.00000
     51      -9.1632      2.00000
     52      -8.9957      2.00000
     53      -8.8409      2.00000
     54      -8.6815      2.00000
     55      -8.4649      2.00000
     56      -8.3778      2.00000
     57      -8.3035      2.00000
     58      -8.2587      2.00000
     59      -8.2453      2.00000
     60      -8.0929      2.00000
     61      -7.9941      2.00000
     62      -7.9406      2.00000
     63      -7.9134      2.00000
     64      -7.8638      2.00000
     65      -7.8367      2.00000
     66      -7.8208      2.00000
     67      -7.7189      2.00000
     68      -7.6988      2.00000
     69      -7.5254      2.00000
     70      -7.4459      2.00000
     71      -7.1541      2.00000
     72      -6.7738      2.00000
     73      -6.7486      2.00000
     74      -6.4344      2.00000
     75      -6.3746      2.00000
     76      -6.1980      2.00000
     77      -6.1916      2.00000
     78      -6.0913      2.00000
     79      -6.0875      2.00000
     80      -5.9312      2.00000
     81      -5.7641      2.00000
     82      -5.6782      2.00000
     83      -5.6369      2.00000
     84      -5.4974      2.00000
     85      -5.4402      2.00000
     86      -5.2527      2.00000
     87      -5.0128      2.00000
     88      -4.9630      2.00000
     89      -4.9360      2.00000
     90      -4.8378      2.00000
     91      -4.6415      2.00000
     92      -4.1569      2.00000
     93      -3.3164      2.00000
     94      -3.3062      2.00000
     95      -3.1725      2.00000
     96      -3.0038      2.00000
     97      -2.8161      2.00000
     98      -1.9278      1.99998
     99      -1.6077      0.02269
    100      -1.5933      0.01107
    101      -0.4186      0.00000
    102      -0.2055      0.00000
    103      -0.1860      0.00000
    104      -0.0660      0.00000
    105      -0.0379      0.00000
    106       0.4967      0.00000
    107       1.0401      0.00000
    108       1.2738      0.00000
    109       1.6233      0.00000
    110       1.8305      0.00000
    111       1.8795      0.00000
    112       2.2439      0.00000
    113       2.4898      0.00000
    114       2.7536      0.00000
    115       2.7622      0.00000
    116       2.8236      0.00000
    117       3.0016      0.00000
    118       3.1031      0.00000
    119       3.1357      0.00000
    120       3.4042      0.00000
    121       3.4898      0.00000
    122       3.4945      0.00000
    123       3.7116      0.00000
    124       4.4387      0.00000

 k-point     7 :       0.9333    0.9333    0.0000
  band No.  band energies     occupation 
      1     -20.8712      2.00000
      2     -20.1775      2.00000
      3     -20.1288      2.00000
      4     -19.9841      2.00000
      5     -19.9086      2.00000
      6     -19.7946      2.00000
      7     -19.4653      2.00000
      8     -18.4895      2.00000
      9     -18.2998      2.00000
     10     -18.1949      2.00000
     11     -17.9316      2.00000
     12     -17.8996      2.00000
     13     -17.6557      2.00000
     14     -17.6030      2.00000
     15     -17.4245      2.00000
     16     -17.1708      2.00000
     17     -17.0322      2.00000
     18     -16.8895      2.00000
     19     -16.2884      2.00000
     20     -15.2886      2.00000
     21     -15.2650      2.00000
     22     -15.1736      2.00000
     23     -15.0715      2.00000
     24     -14.8998      2.00000
     25     -14.4814      2.00000
     26     -14.2413      2.00000
     27     -14.0756      2.00000
     28     -14.0350      2.00000
     29     -13.8646      2.00000
     30     -13.8266      2.00000
     31     -13.4078      2.00000
     32     -13.2462      2.00000
     33     -12.9611      2.00000
     34     -12.6620      2.00000
     35     -12.4113      2.00000
     36     -12.2619      2.00000
     37     -11.4869      2.00000
     38     -10.9073      2.00000
     39     -10.7850      2.00000
     40     -10.7123      2.00000
     41     -10.6836      2.00000
     42     -10.5157      2.00000
     43     -10.3214      2.00000
     44     -10.2324      2.00000
     45     -10.1494      2.00000
     46      -9.9925      2.00000
     47      -9.8588      2.00000
     48      -9.7925      2.00000
     49      -9.4045      2.00000
     50      -9.2095      2.00000
     51      -9.1712      2.00000
     52      -9.0020      2.00000
     53      -8.8810      2.00000
     54      -8.7086      2.00000
     55      -8.5253      2.00000
     56      -8.3310      2.00000
     57      -8.2685      2.00000
     58      -8.2603      2.00000
     59      -8.1373      2.00000
     60      -8.1011      2.00000
     61      -8.0160      2.00000
     62      -7.9149      2.00000
     63      -7.8959      2.00000
     64      -7.8835      2.00000
     65      -7.8339      2.00000
     66      -7.8193      2.00000
     67      -7.7293      2.00000
     68      -7.7085      2.00000
     69      -7.5597      2.00000
     70      -7.4968      2.00000
     71      -7.2412      2.00000
     72      -6.7556      2.00000
     73      -6.7433      2.00000
     74      -6.3455      2.00000
     75      -6.3238      2.00000
     76      -6.1723      2.00000
     77      -6.1474      2.00000
     78      -6.1043      2.00000
     79      -6.0515      2.00000
     80      -5.9646      2.00000
     81      -5.7833      2.00000
     82      -5.7355      2.00000
     83      -5.6846      2.00000
     84      -5.4847      2.00000
     85      -5.4101      2.00000
     86      -5.2422      2.00000
     87      -5.0210      2.00000
     88      -4.9438      2.00000
     89      -4.9262      2.00000
     90      -4.8764      2.00000
     91      -4.7236      2.00000
     92      -4.1824      2.00000
     93      -3.2629      2.00000
     94      -3.2412      2.00000
     95      -3.1389      2.00000
     96      -2.9940      2.00000
     97      -2.8604      2.00000
     98      -1.9260      1.99998
     99      -1.6010      0.01626
    100      -1.5915      0.01015
    101      -0.3825      0.00000
    102      -0.2343      0.00000
    103      -0.2156      0.00000
    104      -0.1025      0.00000
    105      -0.0920      0.00000
    106       0.4973      0.00000
    107       1.1487      0.00000
    108       1.3390      0.00000
    109       1.6258      0.00000
    110       1.8210      0.00000
    111       1.8525      0.00000
    112       2.1163      0.00000
    113       2.4713      0.00000
    114       2.8165      0.00000
    115       2.8751      0.00000
    116       2.8689      0.00000
    117       3.0834      0.00000
    118       3.0935      0.00000
    119       3.1253      0.00000
    120       3.3309      0.00000
    121       3.4198      0.00000
    122       3.4929      0.00000
    123       4.3697      0.00000
    124       4.5160      0.00000

 k-point     8 :       0.9500    0.9500    0.0000
  band No.  band energies     occupation 
      1     -20.8763      2.00000
      2     -20.1382      2.00000
      3     -20.1017      2.00000
      4     -19.9888      2.00000
      5     -19.9294      2.00000
      6     -19.8451      2.00000
      7     -19.4856      2.00000
      8     -18.4147      2.00000
      9     -18.2622      2.00000
     10     -18.1678      2.00000
     11     -17.9785      2.00000
     12     -17.9557      2.00000
     13     -17.6981      2.00000
     14     -17.5217      2.00000
     15     -17.3882      2.00000
     16     -17.1776      2.00000
     17     -17.0692      2.00000
     18     -16.9785      2.00000
     19     -16.3185      2.00000
     20     -15.2033      2.00000
     21     -15.1984      2.00000
     22     -15.1349      2.00000
     23     -15.0285      2.00000
     24     -14.9212      2.00000
     25     -14.4843      2.00000
     26     -14.2341      2.00000
     27     -14.1370      2.00000
     28     -14.1032      2.00000
     29     -13.8884      2.00000
     30     -13.8717      2.00000
     31     -13.4181      2.00000
     32     -13.1394      2.00000
     33     -12.9160      2.00000
     34     -12.6724      2.00000
     35     -12.4636      2.00000
     36     -12.3760      2.00000
     37     -11.5202      2.00000
     38     -10.7931      2.00000
     39     -10.6850      2.00000
     40     -10.6354      2.00000
     41     -10.6180      2.00000
     42     -10.4734      2.00000
     43     -10.3286      2.00000
     44     -10.2732      2.00000
     45     -10.2117      2.00000
     46     -10.0980      2.00000
     47      -9.8798      2.00000
     48      -9.8414      2.00000
     49      -9.3623      2.00000
     50      -9.1799      2.00000
     51      -9.1775      2.00000
     52      -9.0140      2.00000
     53      -8.9392      2.00000
     54      -8.7059      2.00000
     55      -8.5826      2.00000
     56      -8.2828      2.00000
     57      -8.2762      2.00000
     58      -8.2340      2.00000
     59      -8.1074      2.00000
     60      -8.0392      2.00000
     61      -8.0225      2.00000
     62      -7.9441      2.00000
     63      -7.8915      2.00000
     64      -7.8674      2.00000
     65      -7.8117      2.00000
     66      -7.8009      2.00000
     67      -7.7408      2.00000
     68      -7.7182      2.00000
     69      -7.5876      2.00000
     70      -7.5467      2.00000
     71      -7.3382      2.00000
     72      -6.7403      2.00000
     73      -6.7349      2.00000
     74      -6.2747      2.00000
     75      -6.2564      2.00000
     76      -6.1545      2.00000
     77      -6.1117      2.00000
     78      -6.1017      2.00000
     79      -6.0183      2.00000
     80      -6.0012      2.00000
     81      -5.7989      2.00000
     82      -5.7914      2.00000
     83      -5.7455      2.00000
     84      -5.5347      2.00000
     85      -5.3253      2.00000
     86      -5.2070      2.00000
     87      -5.0279      2.00000
     88      -4.9284      2.00000
     89      -4.9186      2.00000
     90      -4.9167      2.00000
     91      -4.8069      2.00000
     92      -4.2038      2.00000
     93      -3.2114      2.00000
     94      -3.1827      2.00000
     95      -3.1110      2.00000
     96      -2.9920      2.00000
     97      -2.9059      2.00000
     98      -1.9233      1.99998
[...]
     41     -10.8250      2.00000
     42     -10.7506      2.00000
     43     -10.2276      2.00000
     44     -10.2246      2.00000
     45     -10.2234      2.00000
     46      -9.9896      2.00000
     47      -9.9776      2.00000
     48      -9.2904      2.00000
     49      -9.0074      2.00000
     50      -8.9977      2.00000
     51      -8.9854      2.00000
     52      -8.8959      2.00000
     53      -8.8383      2.00000
     54      -8.8146      2.00000
     55      -8.6758      2.00000
     56      -8.6312      2.00000
     57      -8.5466      2.00000
     58      -8.2899      2.00000
     59      -8.2616      2.00000
     60      -8.1593      2.00000
     61      -7.9563      2.00000
     62      -7.7944      2.00000
     63      -7.7655      2.00000
     64      -7.7284      2.00000
     65      -7.5537      2.00000
     66      -7.5381      2.00000
     67      -7.4541      2.00000
     68      -7.4450      2.00000
     69      -7.4388      2.00000
     70      -7.2151      2.00000
     71      -7.0672      2.00000
     72      -7.0263      2.00000
     73      -6.7018      2.00000
     74      -6.6872      2.00000
     75      -6.6703      2.00000
     76      -6.6469      2.00000
     77      -6.6404      2.00000
     78      -6.3236      2.00000
     79      -6.1923      2.00000
     80      -6.1840      2.00000
     81      -6.1163      2.00000
     82      -5.5951      2.00000
     83      -5.3655      2.00000
     84      -5.3408      2.00000
     85      -5.2455      2.00000
     86      -4.7346      2.00000
     87      -4.7192      2.00000
     88      -4.7000      2.00000
     89      -4.6922      2.00000
     90      -4.6375      2.00000
     91      -4.3611      2.00000
     92      -3.8379      2.00000
     93      -3.8149      2.00000
     94      -3.8003      2.00000
     95      -3.7164      2.00000
     96      -3.6788      2.00000
     97      -2.5409      2.00000
     98      -1.6919      0.87159
     99      -1.6307      0.06990
    100      -1.5150      0.00022
    101      -1.1783      0.00000
    102       0.0949      0.00000
    103       0.1046      0.00000
    104       0.2400      0.00000
    105       0.6369      0.00000
    106       0.7040      0.00000
    107       0.8820      0.00000
    108       1.4332      0.00000
    109       1.4374      0.00000
    110       1.4550      0.00000
    111       1.4632      0.00000
    112       1.5649      0.00000
    113       2.1888      0.00000
    114       2.2150      0.00000
    115       2.2998      0.00000
    116       2.8169      0.00000
    117       3.5022      0.00000
    118       3.5065      0.00000
    119       3.5546      0.00000
    120       3.8759      0.00000
    121       3.9013      0.00000
    122       3.9552      0.00000
    123       4.7671      0.00000
    124       4.7888      0.00000


--------------------------------------------------------------------------------------------------------


 soft charge-density along one line, spin component           1
         0         1         2         3         4         5         6         7         8         9
 total charge-density along one line
 
 pseudopotential strength for first ion, spin component:           1
 10.669   0.014   0.000   0.000   0.001  -0.000  -0.000  -0.001
  0.014  -0.001  -0.000  -0.000  -0.000  -0.000  -0.000  -0.000
  0.000  -0.000  -4.204  -0.000  -0.001  -0.013  -0.000   0.000
  0.000  -0.000  -0.000  -4.194  -0.000  -0.000  -0.009  -0.000
  0.001  -0.000  -0.001  -0.000  -4.205   0.000  -0.000  -0.013
 -0.000  -0.000  -0.013  -0.000   0.000  -1.092  -0.000  -0.000
 -0.000  -0.000  -0.000  -0.009  -0.000  -0.000  -1.092  -0.000
 -0.001  -0.000   0.000  -0.000  -0.013  -0.000  -0.000  -1.092
 total augmentation occupancy for first ion, spin component:           1
  2.000   0.000   0.000   0.000   0.000   0.000   0.000   0.000
  0.000   0.000   0.000   0.000   0.000   0.000   0.000   0.000
  0.000   0.000   0.667   0.000   0.000   0.000   0.000   0.000
  0.000   0.000   0.000   0.667   0.000   0.000   0.000   0.000
  0.000   0.000   0.000   0.000   0.667   0.000   0.000   0.000
  0.000   0.000   0.000   0.000   0.000   0.000   0.000   0.000
  0.000   0.000   0.000   0.000   0.000   0.000   0.000   0.000
  0.000   0.000   0.000   0.000   0.000   0.000   0.000   0.000


------------------------ aborting loop because EDIFF is reached ----------------------------------------


    CHARGE:  cpu time    1.8958: real time    3.7922
    FORLOC:  cpu time    0.0814: real time    0.1619
    FORNL :  cpu time    3.1133: real time    6.2544
    STRESS:  cpu time    9.6736: real time   19.3867
    FORHAR:  cpu time    0.1199: real time    0.2333
    OFIELD:  cpu time    0.0009: real time    0.0009

  FORCE on cell =-STRESS in cart. coord.  units (eV):
  Direction    XX          YY          ZZ          XY          YZ          ZX
  --------------------------------------------------------------------------------------
  Alpha Z   138.85708   138.85708   138.85708
  Ewald   15617.60799 15617.60799-22104.95500    -0.00000     0.00000     0.00000
  Hartree 15176.85524 15176.85523-14845.67029    -0.00001    -0.00000    -0.00000
  E(xc)    -707.36476  -707.36476  -707.36476     0.00000     0.00000     0.00000
  Local  -33060.98603-33060.99065 34263.48214    -0.00400    -0.00218    -0.00126
  n-local   -93.49111   -93.19552   -87.05650     0.25599    -0.00006    -0.00003
  augment    -6.45965    -6.45814    -6.01491     0.00131     0.00004     0.00002
  Kinetic  2905.45671  2903.85885  3344.16408    -1.38380     0.00021     0.00014
  Fock        0.00000     0.00000     0.00000     0.00000     0.00000     0.00000
  -------------------------------------------------------------------------------------
  Total     -30.17722   -30.17722    -4.55814    -0.00000    -0.00000     0.00000
  in kB     -36.90192   -36.90192    -5.57388    -0.00000    -0.00000     0.00000
  external pressure =      -26.46 kB  Pullay stress =        0.00 kB


 VOLUME and BASIS-vectors are now :
 -----------------------------------------------------------------------------
  energy-cutoff  :      400.00
  volume of cell :     1310.21
      direct lattice vectors                 reciprocal lattice vectors
    12.300000000  0.000000000  0.000000000     0.081300813  0.046939046  0.000000000
    -6.150000000 10.652112467  0.000000000     0.000000000  0.093878093  0.000000000
     0.000000000  0.000000000 10.000000000     0.000000000  0.000000000  0.100000000

  length of vectors
    12.300000000 12.300000000 10.000000000     0.093878093  0.093878093  0.100000000


 FORCES acting on ions
    electron-ion (+dipol)            ewald-force                    non-local-force                 convergence-correction
 -----------------------------------------------------------------------------------------------
   -.965E+01 -.103E+02 0.277E-07   0.904E+01 0.103E+02 0.745E-16   0.495E+00 0.543E+00 0.529E-22   -.396E+00 -.467E+00 0.119E-08
   -.178E-03 -.265E+02 0.519E-07   -.129E-10 0.268E+02 0.551E-16   0.694E-17 -.511E+00 0.000E+00   -.222E-03 -.875E+00 -.126E-08
   0.965E+01 -.103E+02 0.601E-07   -.904E+01 0.103E+02 0.840E-16   -.495E+00 0.543E+00 0.397E-22   0.395E+00 -.467E+00 0.569E-10
   0.282E+01 -.163E+01 0.346E-11   -.279E+01 0.161E+01 0.543E-16   -.751E-01 0.434E-01 -.529E-22   0.139E+00 -.800E-01 -.108E-11
   -.282E+01 -.163E+01 0.143E-07   0.279E+01 0.161E+01 0.615E-16   0.751E-01 0.434E-01 0.000E+00   -.139E+00 -.800E-01 0.270E-09
   -.137E+02 -.322E+01 -.324E-07   0.135E+02 0.266E+01 0.986E-17   0.718E+00 0.158E+00 -.106E-21   -.602E+00 -.109E+00 0.309E-08
   -.982E+02 -.567E+02 -.816E-08   0.982E+02 0.567E+02 0.408E-16   -.185E+00 -.107E+00 0.529E-22   -.113E+01 -.650E+00 0.737E-07
   0.982E+02 -.567E+02 0.655E-12   -.982E+02 0.567E+02 0.789E-16   0.185E+00 -.107E+00 0.529E-22   0.113E+01 -.650E+00 0.137E-11
   0.137E+02 -.322E+01 -.601E-07   -.135E+02 0.266E+01 0.601E-16   -.718E+00 0.158E+00 0.106E-21   0.602E+00 -.109E+00 -.590E-10
   -.222E-03 -.714E+00 -.458E-07   0.301E-11 0.622E+00 0.341E-16   -.271E-18 0.814E-02 0.265E-22   -.142E-03 -.451E-01 0.290E-08
   -.467E+01 0.168E+01 -.242E-07   0.466E+01 -.171E+01 0.102E-16   0.938E-03 -.138E+00 0.000E+00   -.170E+00 0.876E-01 -.264E-09
   -.229E+02 0.132E+02 0.219E-11   0.232E+02 -.134E+02 0.287E-17   -.442E+00 0.255E+00 0.662E-22   -.758E+00 0.438E+00 0.358E-11
   -.295E-03 0.113E+03 0.816E-08   -.616E-11 -.113E+03 0.359E-16   -.555E-16 0.214E+00 -.529E-22   -.454E-03 0.130E+01 -.737E-07
   0.229E+02 0.132E+02 -.519E-07   -.232E+02 -.134E+02 -.657E-17   0.442E+00 0.255E+00 -.265E-22   0.758E+00 0.438E+00 0.126E-08
   0.467E+01 0.168E+01 -.376E-07   -.466E+01 -.171E+01 0.209E-16   -.938E-03 -.138E+00 -.132E-22   0.169E+00 0.877E-01 0.572E-10
   -.156E-03 0.900E-04 0.109E-12   -.226E-12 0.139E-10 0.141E-16   -.542E-19 -.434E-18 0.000E+00   -.157E-03 0.909E-04 -.395E-11
   -.380E+01 0.320E+01 0.242E-07   0.381E+01 -.318E+01 0.627E-16   0.120E+00 0.684E-01 -.265E-22   -.161E+00 0.103E+00 0.262E-09
   -.406E+01 0.135E+02 0.324E-07   0.444E+01 -.130E+02 0.538E-16   0.222E+00 -.700E+00 0.000E+00   -.207E+00 0.576E+00 -.309E-08
   0.406E+01 0.135E+02 -.277E-07   -.444E+01 -.130E+02 0.111E-16   -.222E+00 -.700E+00 0.000E+00   0.206E+00 0.576E+00 -.120E-08
   0.379E+01 0.320E+01 -.134E-07   -.381E+01 -.318E+01 0.785E-17   -.120E+00 0.684E-01 -.106E-21   0.160E+00 0.103E+00 0.356E-09
   -.878E+00 -.489E+01 0.134E-07   0.853E+00 0.489E+01 -.114E-17   -.119E+00 0.700E-01 0.000E+00   -.909E-02 -.190E+00 -.367E-09
   0.877E+00 -.489E+01 0.376E-07   -.853E+00 0.489E+01 0.590E-16   0.119E+00 0.700E-01 0.000E+00   0.875E-02 -.190E+00 -.625E-10
   0.618E+00 0.357E+00 0.458E-07   -.539E+00 -.311E+00 0.874E-16   -.705E-02 -.407E-02 -.265E-22   0.390E-01 0.227E-01 -.290E-08
   -.167E-03 0.325E+01 -.143E-07   0.284E-10 -.322E+01 0.705E-16   -.173E-17 -.867E-01 0.000E+00   -.166E-03 0.160E+00 -.279E-09
   -.619E+00 0.357E+00 0.490E-12   0.539E+00 -.311E+00 0.693E-17   0.705E-02 -.407E-02 0.000E+00   -.394E-01 0.227E-01 -.547E-11
   -.172E+02 -.305E+02 0.483E-07   0.183E+02 0.316E+02 -.812E-16   0.683E+00 0.152E+01 0.000E+00   -.381E+00 -.111E+01 0.249E-08
   0.172E+02 -.305E+02 0.254E-07   -.183E+02 0.316E+02 -.371E-16   -.683E+00 0.152E+01 0.000E+00   0.381E+00 -.111E+01 0.690E-08
   0.806E+01 -.466E+01 -.529E-11   -.851E+01 0.491E+01 -.684E-16   -.984E-01 0.568E-01 0.000E+00   0.411E+00 -.237E+00 -.143E-11
   0.162E-03 -.108E+01 0.233E-07   -.219E-10 0.114E+01 -.471E-16   -.271E-19 -.145E-02 0.132E-21   0.331E-03 -.843E-01 0.236E-09
   -.806E+01 -.466E+01 0.371E-07   0.851E+01 0.491E+01 -.678E-16   0.984E-01 0.568E-01 0.000E+00   -.410E+00 -.237E+00 -.707E-09
   -.350E+02 0.367E+00 0.229E-07   0.365E+02 0.290E-10 -.987E-16   0.165E+01 -.166E+00 0.529E-22   -.115E+01 0.225E+00 0.174E-08
   0.350E+02 0.367E+00 -.254E-07   -.365E+02 0.249E-10 -.119E-15   -.165E+01 -.166E+00 0.265E-22   0.115E+01 0.225E+00 -.690E-08
   0.556E+01 0.384E+00 -.206E-08   -.556E+01 0.430E-11 -.961E-16   -.271E+00 -.144E+00 -.397E-22   0.241E+00 0.172E-01 -.937E-09
   -.556E+01 0.384E+00 0.117E-07   0.556E+01 0.239E-10 -.535E-16   0.271E+00 -.144E+00 -.629E-22   -.241E+00 0.172E-01 -.110E-08
   -.775E+01 0.448E+01 -.238E-11   0.851E+01 -.491E+01 -.126E-15   0.493E-01 -.285E-01 -.165E-22   -.340E+00 0.196E+00 0.127E-11
   -.178E+02 0.301E+02 -.229E-07   0.183E+02 -.316E+02 -.665E-16   0.971E+00 -.135E+01 -.529E-22   -.770E+00 0.884E+00 -.173E-08
   0.178E+02 0.301E+02 -.483E-07   -.183E+02 -.316E+02 -.148E-15   -.971E+00 -.135E+01 -.529E-22   0.771E+00 0.884E+00 -.249E-08
   0.775E+01 0.448E+01 -.250E-07   -.851E+01 -.491E+01 -.153E-15   -.493E-01 -.285E-01 -.662E-23   0.341E+00 0.196E+00 -.953E-09
   0.153E-03 0.130E+01 -.112E-07   0.304E-11 -.114E+01 -.123E-15   0.000E+00 -.144E+00 0.123E-21   0.331E-03 0.595E-02 0.424E-09
   -.112E+01 -.648E+00 0.112E-07   0.991E+00 0.572E+00 -.121E-15   0.124E+00 0.718E-01 -.106E-21   -.498E-02 -.326E-02 -.428E-09
   -.311E+01 0.462E+01 -.117E-07   0.278E+01 -.482E+01 -.661E-16   0.261E+00 -.163E+00 -.106E-21   -.135E+00 0.200E+00 0.110E-08
   0.159E-03 0.931E+01 -.371E-07   0.758E-11 -.982E+01 -.688E-16   0.173E-17 -.114E+00 0.000E+00   0.300E-03 0.474E+00 0.703E-09
   0.311E+01 0.462E+01 -.138E-07   -.278E+01 -.482E+01 -.947E-16   -.261E+00 -.163E+00 0.132E-21   0.136E+00 0.200E+00 -.731E-09
   0.112E+01 -.648E+00 0.130E-10   -.991E+00 0.572E+00 -.106E-15   -.124E+00 0.718E-01 -.106E-21   0.562E-02 -.324E-02 -.690E-11
   0.155E-03 -.895E+01 0.250E-07   0.170E-10 0.982E+01 -.811E-16   -.867E-18 0.570E-01 0.265E-22   0.300E-03 -.393E+00 0.944E-09
   0.245E+01 -.500E+01 0.208E-08   -.278E+01 0.482E+01 -.948E-16   -.106E-01 0.307E+00 0.529E-22   0.106E+00 -.218E+00 0.933E-09
   0.933E+00 0.538E+00 -.233E-07   -.991E+00 -.572E+00 -.886E-16   0.126E-02 0.725E-03 0.106E-21   0.732E-01 0.419E-01 -.241E-09
   -.933E+00 0.538E+00 0.148E-10   0.991E+00 -.572E+00 -.623E-16   -.126E-02 0.725E-03 -.106E-21   -.725E-01 0.419E-01 -.743E-11
   -.244E+01 -.500E+01 0.138E-07   0.278E+01 0.482E+01 -.101E-15   0.106E-01 0.307E+00 0.000E+00   -.105E+00 -.218E+00 0.719E-09
 -----------------------------------------------------------------------------------------------
   0.506E-04 -.292E-04 0.153E-09   0.933E-14 -.933E-13 -.118E-14   0.628E-15 0.444E-15 -.155E-22   0.392E-02 -.227E-02 -.978E-10
 
 
 POSITION                                       TOTAL-FORCE (eV/Angst)
 -----------------------------------------------------------------------------------
      0.00000      0.00000      5.00000        -0.501269      0.158963     -0.000000
      2.46000      0.00000      5.00000        -0.000000     -1.105924      0.000000
      4.92000      0.00000      5.00000         0.501269      0.158963      0.000000
      7.38000      0.00000      5.00000         0.091984     -0.053107     -0.000000
      9.84000      0.00000      5.00000        -0.091984     -0.053107     -0.000000
     -1.23000      2.13042      5.00000        -0.112969     -0.513593     -0.000000
      1.23000      2.13042      5.00000        -1.365805     -0.788548      0.000000
      3.69000      2.13042      5.00000         1.365805     -0.788548     -0.000000
      6.15000      2.13042      5.00000         0.112969     -0.513593      0.000000
      8.61000      2.13042      5.00000        -0.000000     -0.129131      0.000000
     -2.46000      4.26084      5.00000        -0.182425     -0.071636     -0.000000
      0.00000      4.26084      5.00000        -0.957758      0.552962     -0.000000
      2.46000      4.26084      5.00000         0.000000      1.577096     -0.000000
      4.92000      4.26084      5.00000         0.957758      0.552962     -0.000000
      7.38000      4.26084      5.00000         0.182425     -0.071636      0.000000
     -3.69000      6.39127      5.00000        -0.000000      0.000000     -0.000000
     -1.23000      6.39127      5.00000        -0.029174      0.193802      0.000000
      1.23000      6.39127      5.00000         0.388300      0.354630     -0.000000
      3.69000      6.39127      5.00000        -0.388300      0.354630     -0.000000
      6.15000      6.39127      5.00000         0.029174      0.193802      0.000000
     -4.92000      8.52169      5.00000        -0.153251     -0.122166     -0.000000
     -2.46000      8.52169      5.00000         0.153251     -0.122166     -0.000000
      0.00000      8.52169      5.00000         0.111830      0.064565     -0.000000
      2.46000      8.52169      5.00000        -0.000000      0.106214      0.000000
      4.92000      8.52169      5.00000        -0.111830      0.064565     -0.000000
      1.23000      0.71014      5.00000         1.396362      1.566306      0.000000
      3.69000      0.71014      5.00000        -1.396362      1.566306     -0.000000
      6.15000      0.71014      5.00000        -0.132752      0.076644     -0.000000
      8.61000      0.71014      5.00000        -0.000000     -0.017785     -0.000000
     11.07000      0.71014      5.00000         0.132752      0.076644      0.000000
      0.00000      2.84056      5.00000         2.054641      0.426132     -0.000000
      4.92000      2.84056      5.00000        -2.054641      0.426132     -0.000000
      7.38000      2.84056      5.00000        -0.036475      0.256894      0.000000
      9.84000      2.84056      5.00000         0.036475      0.256894      0.000000
     -1.23000      4.97099      5.00000         0.462942     -0.267279      0.000000
      1.23000      4.97099      5.00000         0.658280     -1.992437     -0.000000
      3.69000      4.97099      5.00000        -0.658280     -1.992437      0.000000
      6.15000      4.97099      5.00000        -0.462942     -0.267279      0.000000
      8.61000      4.97099      5.00000        -0.000000      0.013352     -0.000000
     -2.46000      7.10141      5.00000        -0.011563     -0.006676     -0.000000
      0.00000      7.10141      5.00000        -0.204239     -0.160035     -0.000000
      2.46000      7.10141      5.00000        -0.000000     -0.153288     -0.000000
      4.92000      7.10141      5.00000         0.204239     -0.160035     -0.000000
      7.38000      7.10141      5.00000         0.011563     -0.006676     -0.000000
     -3.69000      9.23183      5.00000        -0.000000      0.534559     -0.000000
     -1.23000      9.23183      5.00000        -0.240714     -0.096858     -0.000000
      1.23000      9.23183      5.00000         0.015403      0.008893     -0.000000
      3.69000      9.23183      5.00000        -0.015403      0.008893     -0.000000
      6.15000      9.23183      5.00000         0.240714     -0.096858     -0.000000
 -----------------------------------------------------------------------------------
    total drift:                                0.003975     -0.002295      0.000000


--------------------------------------------------------------------------------------------------------



  FREE ENERGIE OF THE ION-ELECTRON SYSTEM (eV)
  ---------------------------------------------------
  free  energy   TOTEN  =      -486.16164697 eV

  energy  without entropy=     -486.13828727  energy(sigma->0) =     -486.14996712
 


--------------------------------------------------------------------------------------------------------


    POTLOK:  cpu time    0.0591: real time    0.1197


--------------------------------------------------------------------------------------------------------


 stress matrix after NEB project (eV)
    -30.17722      0.00000      0.00000
     -0.00000    -30.17722      0.00000
      0.00000     -0.00000     -4.55814
  FORCES: max atom, RMS     2.098366    0.913130
  FORCE total and by dimension    6.391907    2.054641
  Stress total and by dimension   42.919765   30.177223
 writing wavefunctions
     LOOP+:  cpu time  226.3792: real time  454.0325
    4ORBIT:  cpu time    0.0000: real time    0.0000

 total amount of memory used by VASP MPI-rank0   686551. kBytes
=======================================================================

   base      :      30000. kBytes
   nonlr-proj:       5203. kBytes
   fftplans  :      13053. kBytes
   grid      :      24768. kBytes
   one-center:        150. kBytes
   wavefun   :     613377. kBytes
 
  
  
 General timing and accounting informations for this job:
 ========================================================
  
                  Total CPU time used (sec):      240.613
                            User time (sec):      209.530
                          System time (sec):       31.082
                         Elapsed time (sec):      485.153
  
                   Maximum memory used (kb):     1573096.
                   Average memory used (kb):           0.
  
                          Minor page faults:       517641
                          Major page faults:            0
                 Voluntary context switches:        46693
