 running on   48 total cores
 distrk:  each k-point on   48 cores,    1 groups
 distr:  one band on    8 cores,    6 groups
 using from now: INCAR     
 vasp.5.4.4.18Apr17-6-g9f103f2a35 (build Aug 13 2022 23:40:43) complex          
  
 POSCAR found type information on POSCAR  C  O 
 POSCAR found :  2 types and      51 ions
 scaLAPACK will be used

 ----------------------------------------------------------------------------- 
|                                                                             |
|  ADVICE TO THIS USER RUNNING 'VASP/VAMP'   (HEAR YOUR MASTER'S VOICE ...):  |
|                                                                             |
|      You have a (more or less) 'large supercell' and for larger cells       |
|      it might be more efficient to use real space projection opertators     |
|      So try LREAL= Auto  in the INCAR   file.                               |
|      Mind:          For very  accurate calculation you might also keep the  |
|      reciprocal projection scheme          (i.e. LREAL=.FALSE.)             |
|                                                                             |
 ----------------------------------------------------------------------------- 

 LDA part: xc-table for Pade appr. of Perdew
 POSCAR found type information on POSCAR  C  O 
 POSCAR found :  2 types and      51 ions
 found WAVECAR, reading the header
  number of k-points has changed, file:     3 present:     4
  trying to continue reading WAVECAR, but it might fail
 POSCAR, INCAR and KPOINTS ok, starting setup
 FFT: planning ...
 reading WAVECAR
 the WAVECAR file was read successfully
 charge-density read from file: 1.00000000000000                        
 entering main loop
       N       E                     dE             d eps       ncg     rms          rms(c)
DAV:   1    -0.454090669014E+03   -0.45409E+03   -0.56939E+01  1080   0.799E+00    0.146E-01
RMM:   2    -0.454284694443E+03   -0.19403E+00   -0.19434E+00  1133   0.195E+00    0.101E-01
RMM:   3    -0.454295966408E+03   -0.11272E-01   -0.12708E-01  1225   0.393E-01    0.529E-02
RMM:   4    -0.454296679126E+03   -0.71272E-03   -0.73800E-03  1000   0.104E-01    0.380E-02
RMM:   5    -0.454296746520E+03   -0.67394E-04   -0.59637E-04  1098   0.356E-02    0.543E-03
RMM:   6    -0.454296752908E+03   -0.63877E-05   -0.43927E-05   827   0.103E-02
   1 F= -.45429675E+03 E0= -.45429669E+03  d E =-.125638E-03
