 vasp.5.4.4.18Apr17-6-g9f103f2a35 (build Aug 13 2022 23:40:43) complex          
  
 executed on             LinuxIFC date 2024.11.10  04:21:15
 running on   48 total cores
 distrk:  each k-point on   48 cores,    1 groups
 distr:  one band on NCORES_PER_BAND=   8 cores,    6 groups


--------------------------------------------------------------------------------------------------------


 INCAR:
 POTCAR:    PAW_PBE C 08Apr2002                   
 POTCAR:    PAW_PBE O 08Apr2002                   
 POTCAR:    PAW_PBE C 08Apr2002                   
   VRHFIN =C: s2p2                                                              
   LEXCH  = PE                                                                  
   EATOM  =   147.1560 eV,   10.8157 Ry                                         
                                                                                
   TITEL  = PAW_PBE C 08Apr2002                                                 
   LULTRA =        F    use ultrasoft PP ?                                      
   IUNSCR =        1    unscreen: 0-lin 1-nonlin 2-no                           
   RPACOR =    1.200    partial core radius                                     
   POMASS =   12.011; ZVAL   =    4.000    mass and valenz                      
   RCORE  =    1.500    outmost cutoff radius                                   
   RWIGS  =    1.630; RWIGS  =    0.863    wigner-seitz radius (au A)           
   ENMAX  =  400.000; ENMIN  =  300.000 eV                                      
   ICORE  =        2    local potential                                         
   LCOR   =        T    correct aug charges                                     
   LPAW   =        T    paw PP                                                  
   EAUG   =  644.873                                                            
   DEXC   =    0.000                                                            
   RMAX   =    1.529    core radius for proj-oper                               
   RAUG   =    1.300    factor for augmentation sphere                          
   RDEP   =    1.501    radius for radial grids                                 
   RDEPT  =    1.300    core radius for aug-charge                              
                                                                                
   Atomic configuration                                                         
    4 entries                                                                   
     n  l   j            E        occ.                                          
     1  0  0.50      -273.3789   2.0000                                         
     2  0  0.50       -13.7508   2.0000                                         
     2  1  0.50        -5.2854   2.0000                                         
     3  2  1.50        -5.4423   0.0000                                         
   Description                                                                  
     l       E           TYP  RCUT    TYP  RCUT                                 
     0    -13.7508458     23  1.200                                             
     0     -8.2022199     23  1.200                                             
     1     -5.2854383     23  1.500                                             
     1     34.0145650     23  1.500                                             
     2     -5.4423304      7  1.500                                             
  local pseudopotential read in
  partial core-charges read in
  partial kinetic energy density read in
  atomic valenz-charges read in
  non local Contribution for L=           0  read in
    real space projection operators read in
  non local Contribution for L=           0  read in
    real space projection operators read in
  non local Contribution for L=           1  read in
    real space projection operators read in
  non local Contribution for L=           1  read in
    real space projection operators read in
    PAW grid and wavefunctions read in
 
   number of l-projection  operators is LMAX  =           4
   number of lm-projection operators is LMMAX =           8
 
 POTCAR:    PAW_PBE O 08Apr2002                   
   VRHFIN =O: s2p4                                                              
   LEXCH  = PE                                                                  
   EATOM  =   432.3788 eV,   31.7789 Ry                                         
                                                                                
   TITEL  = PAW_PBE O 08Apr2002                                                 
   LULTRA =        F    use ultrasoft PP ?                                      
   IUNSCR =        1    unscreen: 0-lin 1-nonlin 2-no                           
   RPACOR =    1.200    partial core radius                                     
   POMASS =   16.000; ZVAL   =    6.000    mass and valenz                      
   RCORE  =    1.520    outmost cutoff radius                                   
   RWIGS  =    1.550; RWIGS  =    0.820    wigner-seitz radius (au A)           
   ENMAX  =  400.000; ENMIN  =  300.000 eV                                      
   ICORE  =        2    local potential                                         
   LCOR   =        T    correct aug charges                                     
   LPAW   =        T    paw PP                                                  
   EAUG   =  605.392                                                            
   DEXC   =    0.000                                                            
   RMAX   =    1.553    core radius for proj-oper                               
   RAUG   =    1.300    factor for augmentation sphere                          
   RDEP   =    1.550    radius for radial grids                                 
   RDEPT  =    1.329    core radius for aug-charge                              
                                                                                
   Atomic configuration                                                         
    4 entries                                                                   
     n  l   j            E        occ.                                          
     1  0  0.50      -514.6923   2.0000                                         
     2  0  0.50       -23.9615   2.0000                                         
     2  1  0.50        -9.0305   4.0000                                         
     3  2  1.50        -9.5241   0.0000                                         
   Description                                                                  
     l       E           TYP  RCUT    TYP  RCUT                                 
     0    -23.9615318     23  1.200                                             
     0     -9.5240782     23  1.200                                             
     1     -9.0304911     23  1.520                                             
     1      8.1634956     23  1.520                                             
     2     -9.5240782      7  1.500                                             
  local pseudopotential read in
  partial core-charges read in
  partial kinetic energy density read in
  kinetic energy density of atom read in
  atomic valenz-charges read in
  non local Contribution for L=           0  read in
    real space projection operators read in
  non local Contribution for L=           0  read in
    real space projection operators read in
  non local Contribution for L=           1  read in
    real space projection operators read in
  non local Contribution for L=           1  read in
    real space projection operators read in
    PAW grid and wavefunctions read in
 
   number of l-projection  operators is LMAX  =           4
   number of lm-projection operators is LMMAX =           8
 

 ----------------------------------------------------------------------------- 
|                                                                             |
|  ADVICE TO THIS USER RUNNING 'VASP/VAMP'   (HEAR YOUR MASTER'S VOICE ...):  |
|                                                                             |
|      You have a (more or less) 'large supercell' and for larger cells       |
|      it might be more efficient to use real space projection opertators     |
|      So try LREAL= Auto  in the INCAR   file.                               |
|      Mind:          For very  accurate calculation you might also keep the  |
|      reciprocal projection scheme          (i.e. LREAL=.FALSE.)             |
|                                                                             |
 ----------------------------------------------------------------------------- 

  PAW_PBE C 08Apr2002                   :
 energy of atom  1       EATOM= -147.1560
 kinetic energy error for atom=    0.0288 (will be added to EATOM!!)
  PAW_PBE O 08Apr2002                   :
 energy of atom  2       EATOM= -432.3788
 kinetic energy error for atom=    0.1156 (will be added to EATOM!!)
 
 
 POSCAR: generated by phonopy                    
  positions in direct lattice
  No initial velocities read in
 exchange correlation table for  LEXCH =        8
   RHO(1)=    0.500       N(1)  =     2000
   RHO(2)=  100.500       N(2)  =     4000

 VTST: version 3.2, (02/03/18)

 CHAIN: initializing optimizer
 
 OPT: Using VASP Dynamics algorithm
 CHAIN: Read ICHAIN            0
 
 POSCAR: generated by phonopy                    
  positions in direct lattice
  No initial velocities read in
 


--------------------------------------------------------------------------------------------------------


 ion  position               nearest neighbor table
   1  0.000  0.000  0.418-  26 1.42  30 1.42  46 1.42
   2  0.200  0.000  0.418-  27 1.42  26 1.42  47 1.42
   3  0.400  0.000  0.418-  28 1.42  27 1.42  48 1.42
   4  0.600  0.000  0.418-  29 1.42  28 1.42  49 1.42
   5  0.800  0.000  0.418-  30 1.42  29 1.42  50 1.42
   6  0.000  0.200  0.418-  31 1.42  35 1.42  26 1.42
   7  0.200  0.200  0.418-  32 1.42  31 1.42  27 1.42
   8  0.400  0.200  0.418-  32 1.42  28 1.42  33 1.42
   9  0.600  0.200  0.418-  34 1.42  29 1.42  33 1.42
  10  0.800  0.200  0.418-  35 1.42  34 1.42  30 1.42
  11  0.000  0.400  0.418-  36 1.42  40 1.42  31 1.42
  12  0.200  0.400  0.418-  37 1.42  36 1.42  32 1.42
  13  0.400  0.400  0.418-  51 1.00  38 1.42  37 1.42  33 1.42
  14  0.600  0.400  0.418-  39 1.42  38 1.42  34 1.42
  15  0.800  0.400  0.418-  40 1.42  39 1.42  35 1.42
  16  0.000  0.600  0.418-  41 1.42  45 1.42  36 1.42
  17  0.200  0.600  0.418-  42 1.42  41 1.42  37 1.42
  18  0.400  0.600  0.418-  43 1.42  42 1.42  38 1.42
  19  0.600  0.600  0.418-  44 1.42  43 1.42  39 1.42
  20  0.800  0.600  0.418-  45 1.42  44 1.42  40 1.42
  21  0.000  0.800  0.418-  46 1.42  50 1.42  41 1.42
  22  0.200  0.800  0.418-  47 1.42  46 1.42  42 1.42
  23  0.400  0.800  0.418-  48 1.42  47 1.42  43 1.42
  24  0.600  0.800  0.418-  49 1.42  48 1.42  44 1.42
  25  0.800  0.800  0.418-  50 1.42  49 1.42  45 1.42
  26  0.067  0.067  0.418-   1 1.42   2 1.42   6 1.42
  27  0.267  0.067  0.418-   2 1.42   3 1.42   7 1.42
  28  0.467  0.067  0.418-   3 1.42   4 1.42   8 1.42
  29  0.667  0.067  0.418-   4 1.42   5 1.42   9 1.42
  30  0.867  0.067  0.418-   5 1.42   1 1.42  10 1.42
  31  0.067  0.267  0.418-   6 1.42   7 1.42  11 1.42
  32  0.267  0.267  0.418-   7 1.42   8 1.42  12 1.42
  33  0.467  0.267  0.419-   8 1.42   9 1.42  13 1.42  51 1.73
  34  0.667  0.267  0.418-   9 1.42  10 1.42  14 1.42
  35  0.867  0.267  0.418-  10 1.42   6 1.42  15 1.42
  36  0.067  0.467  0.418-  11 1.42  12 1.42  16 1.42
  37  0.267  0.467  0.418-  12 1.42  13 1.42  17 1.42  51 1.74
  38  0.467  0.467  0.418-  13 1.42  14 1.42  18 1.42  51 1.74
  39  0.667  0.467  0.418-  14 1.42  15 1.42  19 1.42
  40  0.867  0.467  0.418-  15 1.42  11 1.42  20 1.42
  41  0.067  0.667  0.418-  16 1.42  17 1.42  21 1.42
  42  0.267  0.667  0.418-  17 1.42  18 1.42  22 1.42
  43  0.467  0.667  0.418-  18 1.42  19 1.42  23 1.42
  44  0.667  0.667  0.418-  19 1.42  20 1.42  24 1.42
  45  0.867  0.667  0.418-  20 1.42  16 1.42  25 1.42
  46  0.067  0.867  0.418-  21 1.42  22 1.42   1 1.42
  47  0.267  0.867  0.418-  22 1.42  23 1.42   2 1.42
  48  0.467  0.867  0.418-  23 1.42  24 1.42   3 1.42
  49  0.667  0.867  0.418-  24 1.42  25 1.42   4 1.42
  50  0.867  0.867  0.418-  25 1.42  21 1.42   5 1.42
  51  0.400  0.400  0.468-  13 1.00  33 1.73  38 1.74  37 1.74
 
  LATTYP: Found a hexagonal cell.
 ALAT       =    12.2999994816
 C/A-ratio  =     1.6260163287
  
  Lattice vectors:
  
 A1 = (   6.1499993860, -10.6521122225,   0.0000000000)
 A2 = ( -12.3000001905,   0.0000000000,   0.0000000000)
 A3 = (   0.0000000000,   0.0000000000, -20.0000000000)


Analysis of symmetry for initial positions (statically):
=====================================================================
 Subroutine PRICEL returns:
 Original cell was already a primitive cell.
 

 Routine SETGRP: Setting up the symmetry group for a 
 hexagonal supercell.


 Subroutine GETGRP returns: Found  2 space group operations
 (whereof  1 operations were pure point group operations)
 out of a pool of 24 trial point group operations.


The static configuration has the point symmetry C_1 .
 The point group associated with its full space group is C_1h.


Analysis of symmetry for dynamics (positions and initial velocities):
=====================================================================
 Subroutine PRICEL returns:
 Original cell was already a primitive cell.
 

 Routine SETGRP: Setting up the symmetry group for a 
 hexagonal supercell.


 Subroutine GETGRP returns: Found  2 space group operations
 (whereof  1 operations were pure point group operations)
 out of a pool of 24 trial point group operations.


The dynamic configuration has the point symmetry C_1 .
 The point group associated with its full space group is C_1h.


 Subroutine INISYM returns: Found  2 space group operations
 (whereof  1 operations are pure point group operations),
 and found     1 'primitive' translations

 
 
 KPOINTS: K-POINTS                                

Automatic generation of k-mesh.
Space group operators:
 irot       det(A)        alpha          n_x          n_y          n_z        tau_x        tau_y        tau_z
    1     1.000000     0.000000     1.000000     0.000000     0.000000     0.000000     0.000000     0.000000
    2    -1.000000   180.000000     1.000000    -0.000000     0.000000    -0.800000     0.000000     0.000000
 
 Subroutine IBZKPT returns following result:
 ===========================================
 
 Found      4 irreducible k-points:
 
 Following reciprocal coordinates:
            Coordinates               Weight
  0.000000  0.000000  0.000000      1.000000
  0.333333  0.000000  0.000000      4.000000
  0.000000  0.333333  0.000000      2.000000
 -0.333333  0.333333  0.000000      2.000000
 
 Following cartesian coordinates:
            Coordinates               Weight
  0.000000  0.000000  0.000000      1.000000
  0.027100 -0.015646  0.000000      4.000000
  0.000000  0.031293  0.000000      2.000000
 -0.027100  0.046939  0.000000      2.000000
 


--------------------------------------------------------------------------------------------------------




 Dimension of arrays:
   k-points           NKPTS =      4   k-points in BZ     NKDIM =      4   number of bands    NBANDS=    132
   number of dos      NEDOS =    301   number of ions     NIONS =     51
   non local maximal  LDIM  =      4   non local SUM 2l+1 LMDIM =      8
   total plane-waves  NPLWV = 896000
   max r-space proj   IRMAX =      1   max aug-charges    IRDMAX=  35685
   dimension x,y,z NGX =    80 NGY =   80 NGZ =  140
   dimension x,y,z NGXF=   160 NGYF=  160 NGZF=  280
   support grid    NGXF=   320 NGYF=  320 NGZF=  560
   ions per type =              50   1
   NGX,Y,Z   is equivalent  to a cutoff of  10.81, 10.81, 11.64 a.u.
   NGXF,Y,Z  is equivalent  to a cutoff of  21.63, 21.63, 23.27 a.u.

 SYSTEM =                                          
 POSCAR =  generated by phonopy                    

 Startparameter for this run:
   NWRITE =      2    write-flag & timer
   PREC   = accura    normal or accurate (medium, high low for compatibility)
   ISTART =      1    job   : 0-new  1-cont  2-samecut
   ICHARG =      1    charge: 1-file 2-atom 10-const
   ISPIN  =      1    spin polarized calculation?
   LNONCOLLINEAR =      F non collinear calculations
   LSORBIT =      F    spin-orbit coupling
   INIWAV =      1    electr: 0-lowe 1-rand  2-diag
   LASPH  =      F    aspherical Exc in radial PAW
   METAGGA=      F    non-selfconsistent MetaGGA calc.

 Electronic Relaxation 1
   ENCUT  =  400.0 eV  29.40 Ry    5.42 a.u.  20.06 20.06 32.61*2*pi/ulx,y,z
   ENINI  =  400.0     initial cutoff
   ENAUG  =  644.9 eV  augmentation charge cutoff
   NELM   =    300;   NELMIN=  2; NELMDL=  0     # of ELM steps 
   EDIFF  = 0.1E-04   stopping-criterion for ELM
   LREAL  =      F    real-space projection
   NLSPLINE    = F    spline interpolate recip. space projectors
   LCOMPAT=      F    compatible to vasp.4.4
   GGA_COMPAT  = T    GGA compatible to vasp.4.4-vasp.4.6
   LMAXPAW     = -100 max onsite density
   LMAXMIX     =    2 max onsite mixed and CHGCAR
   VOSKOWN=      0    Vosko Wilk Nusair interpolation
   ROPT   =    0.00000   0.00000
 Ionic relaxation
   EDIFFG = -.1E-02   stopping-criterion for IOM
   NSW    =      1    number of steps for IOM
   NBLOCK =      1;   KBLOCK =      1    inner block; outer block 
   IBRION =     -1    ionic relax: 0-MD 1-quasi-New 2-CG
   NFREE  =      0    steps in history (QN), initial steepest desc. (CG)
   ISIF   =      2    stress and relaxation
   IWAVPR =     10    prediction:  0-non 1-charg 2-wave 3-comb
   ISYM   =      2    0-nonsym 1-usesym 2-fastsym
   LCORR  =      T    Harris-Foulkes like correction to forces

   POTIM  = 0.5000    time-step for ionic-motion
   TEIN   =    0.0    initial temperature
   TEBEG  =    0.0;   TEEND  =   0.0 temperature during run
   SMASS  =  -3.00    Nose mass-parameter (am)
   estimated Nose-frequenzy (Omega)   =  0.10E-29 period in steps =****** mass=  -0.346E-26a.u.
   SCALEE = 1.0000    scale energy and forces
   NPACO  =    256;   APACO  = 16.0  distance and # of slots for P.C.
   PSTRESS=    0.0 pullay stress

  Mass of Ions in am
   POMASS =  12.01 16.00
  Ionic Valenz
   ZVAL   =   4.00  6.00
  Atomic Wigner-Seitz radii
   RWIGS  =  -1.00 -1.00
  virtual crystal weights 
   VCA    =   1.00  1.00
   NELECT =     206.0000    total number of electrons
   NUPDOWN=      -1.0000    fix difference up-down

 DOS related values:
   EMIN   =  10.00;   EMAX   =-10.00  energy-range for DOS
   EFERMI =   0.00
   ISMEAR =     0;   SIGMA  =   0.05  broadening in eV -4-tet -1-fermi 0-gaus

 Electronic relaxation 2 (details)
   IALGO  =     68    algorithm
   LDIAG  =      T    sub-space diagonalisation (order eigenvalues)
   LSUBROT=      F    optimize rotation matrix (better conditioning)
   TURBO    =      0    0=normal 1=particle mesh
   IRESTART =      0    0=no restart 2=restart with 2 vectors
   NREBOOT  =      0    no. of reboots
   NMIN     =      0    reboot dimension
   EREF     =   0.00    reference energy to select bands
   IMIX   =      4    mixing-type and parameters
     AMIX     =   0.40;   BMIX     =  1.00
     AMIX_MAG =   1.60;   BMIX_MAG =  1.00
     AMIN     =   0.10
     WC   =   100.;   INIMIX=   1;  MIXPRE=   1;  MAXMIX= -45

 Intra band minimization:
   WEIMIN = 0.0000     energy-eigenvalue tresh-hold
   EBREAK =  0.19E-07  absolut break condition
   DEPER  =   0.30     relativ break condition  

   TIME   =   0.40     timestep for ELM

  volume/ion in A,a.u.               =      51.38       346.73
  Fermi-wavevector in a.u.,A,eV,Ry     =   0.701305  1.325274  6.691736  0.491829
  Thomas-Fermi vector in A             =   1.785695
 
 Write flags
   LWAVE        =      F    write WAVECAR
   LDOWNSAMPLE  =      F    k-point downsampling of WAVECAR
   LCHARG       =      F    write CHGCAR
   LVTOT        =      F    write LOCPOT, total local potential
   LVHAR        =      F    write LOCPOT, Hartree potential only
   LELF         =      F    write electronic localiz. function (ELF)
   LORBIT       =      0    0 simple, 1 ext, 2 COOP (PROOUT), +10 PAW based schemes


 Dipole corrections
   LMONO  =      F    monopole corrections only (constant potential shift)
   LDIPOL =      F    correct potential (dipole corrections)
   IDIPOL =      0    1-x, 2-y, 3-z, 4-all directions 
   EPSILON=  1.0000000 bulk dielectric constant

 Exchange correlation treatment:
   GGA     =    --    GGA type
   LEXCH   =     8    internal setting for exchange type
   VOSKOWN=      0    Vosko Wilk Nusair interpolation
   LHFCALC =     F    Hartree Fock is set to
   LHFONE  =     F    Hartree Fock one center treatment
   AEXX    =    0.0000 exact exchange contribution

 Linear response parameters
   LEPSILON=     F    determine dielectric tensor
   LRPA    =     F    only Hartree local field effects (RPA)
   LNABLA  =     F    use nabla operator in PAW spheres
   LVEL    =     F    velocity operator in full k-point grid
   LINTERFAST=   F  fast interpolation
   KINTER  =     0    interpolate to denser k-point grid
   CSHIFT  =0.1000    complex shift for real part using Kramers Kronig
   OMEGAMAX=  -1.0    maximum frequency
   DEG_THRESHOLD= 0.2000000E-02 threshold for treating states as degnerate
   RTIME   =   -0.100 relaxation time in fs
  (WPLASMAI=    0.000 imaginary part of plasma frequency in eV, 0.658/RTIME)
   DFIELD  = 0.0000000 0.0000000 0.0000000 field for delta impulse in time
 
 Orbital magnetization related:
   ORBITALMAG=     F  switch on orbital magnetization
   LCHIMAG   =     F  perturbation theory with respect to B field
   DQ        =  0.001000  dq finite difference perturbation B field
   LLRAUG    =     F  two centre corrections for induced B field



--------------------------------------------------------------------------------------------------------


 Static calculation
 charge density and potential will be updated during run
 non-spin polarized calculation
 RMM-DIIS sequential band-by-band and
  variant of blocked Davidson during initial phase
 perform sub-space diagonalisation
    before iterative eigenvector-optimisation
 modified Broyden-mixing scheme, WC =      100.0
 initial mixing is a Kerker type mixing with AMIX =  0.4000 and BMIX =      1.0000
 Hartree-type preconditioning will be used
 using additional bands           29
 reciprocal scheme for non local part
 use partial core corrections
 calculate Harris-corrections to forces 
   (improved forces if not selfconsistent)
 use gradient corrections 
 use of overlap-Matrix (Vanderbilt PP)
 Gauss-broadening in eV      SIGMA  =   0.05


--------------------------------------------------------------------------------------------------------


  energy-cutoff  :      400.00
  volume of cell :     2620.42
      direct lattice vectors                 reciprocal lattice vectors
    12.300000191  0.000000000  0.000000000     0.081300812 -0.046939053  0.000000000
     6.150000804 10.652112223  0.000000000     0.000000000  0.093878095  0.000000000
     0.000000000  0.000000000 20.000000000     0.000000000  0.000000000  0.050000000

  length of vectors
    12.300000191 12.300000191 20.000000000     0.093878095  0.093878095  0.050000000


 
 old parameters found on file WAVECAR:
  energy-cutoff  :      400.00
  volume of cell :     2620.42
      direct lattice vectors                 reciprocal lattice vectors
    12.300000191  0.000000000  0.000000000     0.081300812 -0.046939053  0.000000000
     6.150000804 10.652112223  0.000000000     0.000000000  0.093878095  0.000000000
     0.000000000  0.000000000 20.000000000     0.000000000  0.000000000  0.050000000

  length of vectors

 
 k-points in units of 2pi/SCALE and weight: K-POINTS                                
   0.00000000  0.00000000  0.00000000       0.111
   0.02710027 -0.01564635  0.00000000       0.444
   0.00000000  0.03129270  0.00000000       0.222
  -0.02710027  0.04693905  0.00000000       0.222
 
 k-points in reciprocal lattice and weights: K-POINTS                                
   0.00000000  0.00000000  0.00000000       0.111
   0.33333333  0.00000000  0.00000000       0.444
   0.00000000  0.33333333  0.00000000       0.222
  -0.33333333  0.33333333  0.00000000       0.222
 
 position of ions in fractional coordinates (direct lattice) 
   0.00000000  0.00000000  0.41799748
   0.20000000  0.00000000  0.41799748
   0.40000000  0.00000000  0.41799748
   0.60000000  0.00000000  0.41799748
   0.80000000  0.00000000  0.41799748
   0.00000000  0.20000000  0.41799748
   0.20000000  0.20000000  0.41799748
   0.40000000  0.20000000  0.41799748
   0.60000000  0.20000000  0.41799748
   0.80000000  0.20000000  0.41799748
   0.00000000  0.40000000  0.41799748
   0.20000000  0.40000000  0.41799748
   0.40000000  0.40000000  0.41799748
   0.60000000  0.40000000  0.41799748
   0.80000000  0.40000000  0.41799748
   0.00000000  0.60000000  0.41799748
   0.20000000  0.60000000  0.41799748
   0.40000000  0.60000000  0.41799748
   0.60000000  0.60000000  0.41799748
   0.80000000  0.60000000  0.41799748
   0.00000000  0.80000000  0.41799748
   0.20000000  0.80000000  0.41799748
   0.40000000  0.80000000  0.41799748
   0.60000000  0.80000000  0.41799748
   0.80000000  0.80000000  0.41799748
   0.06666667  0.06666660  0.41800609
   0.26666667  0.06666660  0.41800609
   0.46666667  0.06666660  0.41800609
   0.66666667  0.06666660  0.41800609
   0.86666667  0.06666660  0.41800609
   0.06666667  0.26666660  0.41800609
   0.26666667  0.26666660  0.41800609
   0.46666667  0.26666660  0.41850609
   0.66666667  0.26666660  0.41800609
   0.86666667  0.26666660  0.41800609
   0.06666667  0.46666660  0.41800609
   0.26666667  0.46666660  0.41800609
   0.46666667  0.46666660  0.41800609
   0.66666667  0.46666660  0.41800609
   0.86666667  0.46666660  0.41800609
   0.06666667  0.66666660  0.41800609
   0.26666667  0.66666660  0.41800609
   0.46666667  0.66666660  0.41800609
   0.66666667  0.66666660  0.41800609
   0.86666667  0.66666660  0.41800609
   0.06666667  0.86666660  0.41800609
   0.26666667  0.86666660  0.41800609
   0.46666667  0.86666660  0.41800609
   0.66666667  0.86666660  0.41800609
   0.86666667  0.86666660  0.41800609
   0.40000000  0.40000000  0.46800609
 
 position of ions in cartesian coordinates  (Angst):
   0.00000000  0.00000000  8.35994958
   2.46000004  0.00000000  8.35994958
   4.92000008  0.00000000  8.35994958
   7.38000011  0.00000000  8.35994958
   9.84000015  0.00000000  8.35994958
   1.23000016  2.13042244  8.35994958
   3.69000020  2.13042244  8.35994958
   6.15000024  2.13042244  8.35994958
   8.61000028  2.13042244  8.35994958
  11.07000031  2.13042244  8.35994958
   2.46000032  4.26084489  8.35994958
   4.92000036  4.26084489  8.35994958
   7.38000040  4.26084489  8.35994958
   9.84000044  4.26084489  8.35994958
  12.30000047  4.26084489  8.35994958
   3.69000048  6.39126733  8.35994958
   6.15000052  6.39126733  8.35994958
   8.61000056  6.39126733  8.35994958
  11.07000060  6.39126733  8.35994958
  13.53000064  6.39126733  8.35994958
   4.92000064  8.52168978  8.35994958
   7.38000068  8.52168978  8.35994958
   9.84000072  8.52168978  8.35994958
  12.30000076  8.52168978  8.35994958
  14.76000080  8.52168978  8.35994958
   1.22999970  0.71014014  8.36012184
   3.68999974  0.71014014  8.36012184
   6.14999977  0.71014014  8.36012184
   8.60999981  0.71014014  8.36012184
  11.06999985  0.71014014  8.36012184
   2.45999986  2.84056258  8.36012184
   4.91999990  2.84056258  8.36012184
   7.37999994  2.84056258  8.37012184
   9.83999997  2.84056258  8.36012184
  12.30000001  2.84056258  8.36012184
   3.69000002  4.97098503  8.36012184
   6.15000006  4.97098503  8.36012184
   8.61000010  4.97098503  8.36012184
  11.07000013  4.97098503  8.36012184
  13.53000017  4.97098503  8.36012184
   4.92000018  7.10140747  8.36012184
   7.38000022  7.10140747  8.36012184
   9.84000026  7.10140747  8.36012184
  12.30000030  7.10140747  8.36012184
  14.76000033  7.10140747  8.36012184
   6.15000034  9.23182991  8.36012184
   8.61000038  9.23182991  8.36012184
  11.07000042  9.23182991  8.36012184
  13.53000046  9.23182991  8.36012184
  15.99000049  9.23182991  8.36012184
   7.38000040  4.26084489  9.36012184
 


--------------------------------------------------------------------------------------------------------


 k-point  1 :   0.0000 0.0000 0.0000  plane waves:   47639
 k-point  2 :   0.3333 0.0000 0.0000  plane waves:   47601
 k-point  3 :   0.0000 0.3333 0.0000  plane waves:   47601
 k-point  4 :  -0.3333 0.3333 0.0000  plane waves:   47598

 maximum and minimum number of plane-waves per node :      5975     5928

 maximum number of plane-waves:     47639
 maximum index in each direction: 
   IXMAX=   20   IYMAX=   20   IZMAX=   32
   IXMIN=  -20   IYMIN=  -20   IZMIN=  -32


 parallel 3D FFT for wavefunctions:
    minimum data exchange during FFTs selected (reduces bandwidth)
 parallel 3D FFT for charge:
    minimum data exchange during FFTs selected (reduces bandwidth)


 total amount of memory used by VASP MPI-rank0    87233. kBytes
=======================================================================

   base      :      30000. kBytes
   nonl-proj :       7912. kBytes
   fftplans  :      26248. kBytes
   grid      :      14579. kBytes
   one-center:         21. kBytes
   wavefun   :       8473. kBytes
 
     INWAV:  cpu time    0.6480: real time    0.6483
 Broyden mixing: mesh for mixing (old mesh)
   NGX = 41   NGY = 41   NGZ = 65
  (NGX  =160   NGY  =160   NGZ  =280)
  gives a total of 109265 points

 initial charge density was supplied:
 number of electron     206.0000000 magnetization 
 keeping initial charge density in first step


--------------------------------------------------------------------------------------------------------


 Maximum index for augmentation-charges         1119 (set IRDMAX)


--------------------------------------------------------------------------------------------------------


 First call to EWALD:  gamma=   0.129
 Maximum number of real-space cells 3x 3x 2
 Maximum number of reciprocal cells 3x 3x 4

    FEWALD:  cpu time    0.0018: real time    0.0031


--------------------------------------- Iteration      1(   1)  ---------------------------------------


    POTLOK:  cpu time    0.1055: real time    0.1090
    SETDIJ:  cpu time    0.0825: real time    0.0845
     EDDAV:  cpu time    3.2346: real time    3.2666
       DOS:  cpu time    0.0005: real time    0.0005
    CHARGE:  cpu time    0.3282: real time    0.3311
    MIXING:  cpu time    0.0071: real time    0.0072
    --------------------------------------------
      LOOP:  cpu time    3.7584: real time    3.7989

 eigenvalue-minimisations  :  1080
 total energy-change (2. order) :-0.4540907E+03  (-0.5693910E+01)
 number of electron     206.0000000 magnetization 
 augmentation part        5.5353947 magnetization 

 Broyden mixing:
  rms(total) = 0.14622E-01    rms(broyden)= 0.14553E-01
  rms(prec ) = 0.15469E-01
  weight for this iteration     100.00

 Free energy of the ion-electron system (eV)
  ---------------------------------------------------
  alpha Z        PSCENC =        82.54348252
  Ewald energy   TEWEN  =     34517.17722704
  -Hartree energ DENC   =    -41035.39311461
  -exchange      EXHF   =         0.00000000
  -V(xc)+E(xc)   XCENC  =       721.38472910
  PAW double counting   =     22781.19595426   -22817.52509957
  entropy T*S    EENTRO =        -0.00016955
  eigenvalues    EBANDS =     -2492.09806783
  atomic energy  EATOM  =      7788.62438962
  Solvation  Ediel_sol  =         0.00000000
  ---------------------------------------------------
  free energy    TOTEN  =      -454.09066901 eV

  energy without entropy =     -454.09049946  energy(sigma->0) =     -454.09058424


--------------------------------------------------------------------------------------------------------




--------------------------------------- Iteration      1(   2)  ---------------------------------------


    POTLOK:  cpu time    0.0979: real time    0.0995
    SETDIJ:  cpu time    0.0795: real time    0.0816
    EDDIAG:  cpu time    0.6212: real time    0.6268
  RMM-DIIS:  cpu time    2.9757: real time    3.0035
    ORTHCH:  cpu time    0.0328: real time    0.0331
       DOS:  cpu time    0.0004: real time    0.0004
    CHARGE:  cpu time    0.3175: real time    0.3201
    MIXING:  cpu time    0.0068: real time    0.0069
    --------------------------------------------
      LOOP:  cpu time    4.1318: real time    4.1719

 eigenvalue-minimisations  :  1133
 total energy-change (2. order) :-0.1940254E+00  (-0.1943352E+00)
 number of electron     206.0000000 magnetization 
 augmentation part        5.5443931 magnetization 

 Broyden mixing:
  rms(total) = 0.10118E-01    rms(broyden)= 0.10089E-01
  rms(prec ) = 0.10924E-01
  weight for this iteration     100.00

 eigenvalues of (default mixing * dielectric matrix)
  average eigenvalue GAMMA=   0.6539
  0.6539

 Free energy of the ion-electron system (eV)
  ---------------------------------------------------
  alpha Z        PSCENC =        82.54348252
  Ewald energy   TEWEN  =     34517.17722704
  -Hartree energ DENC   =    -41034.74426808
  -exchange      EXHF   =         0.00000000
  -V(xc)+E(xc)   XCENC  =       721.35738089
  PAW double counting   =     22791.64705586   -22827.96340359
  entropy T*S    EENTRO =        -0.00010532
  eigenvalues    EBANDS =     -2492.92645338
  atomic energy  EATOM  =      7788.62438962
  Solvation  Ediel_sol  =         0.00000000
  ---------------------------------------------------
  free energy    TOTEN  =      -454.28469444 eV

  energy without entropy =     -454.28458912  energy(sigma->0) =     -454.28464178


--------------------------------------------------------------------------------------------------------




--------------------------------------- Iteration      1(   3)  ---------------------------------------


    POTLOK:  cpu time    0.0963: real time    0.0975
    SETDIJ:  cpu time    0.0808: real time    0.0828
    EDDIAG:  cpu time    0.6266: real time    0.6326
  RMM-DIIS:  cpu time    3.2463: real time    3.2758
    ORTHCH:  cpu time    0.0320: real time    0.0333
       DOS:  cpu time    0.0003: real time    0.0003
    CHARGE:  cpu time    0.3175: real time    0.3206
    MIXING:  cpu time    0.0068: real time    0.0068
    --------------------------------------------
      LOOP:  cpu time    4.4065: real time    4.4498

 eigenvalue-minimisations  :  1225
 total energy-change (2. order) :-0.1127196E-01  (-0.1270813E-01)
 number of electron     206.0000000 magnetization 
 augmentation part        5.5444053 magnetization 

 Broyden mixing:
  rms(total) = 0.52864E-02    rms(broyden)= 0.52814E-02
  rms(prec ) = 0.54788E-02
  weight for this iteration     100.00

 eigenvalues of (default mixing * dielectric matrix)
  average eigenvalue GAMMA=   0.7908
  0.7908  0.7908

 Free energy of the ion-electron system (eV)
  ---------------------------------------------------
  alpha Z        PSCENC =        82.54348252
  Ewald energy   TEWEN  =     34517.17722704
  -Hartree energ DENC   =    -41034.95330374
  -exchange      EXHF   =         0.00000000
  -V(xc)+E(xc)   XCENC  =       721.36647957
  PAW double counting   =     22790.68024235   -22827.00065076
  entropy T*S    EENTRO =        -0.00012844
  eigenvalues    EBANDS =     -2492.73370457
  atomic energy  EATOM  =      7788.62438962
  Solvation  Ediel_sol  =         0.00000000
  ---------------------------------------------------
  free energy    TOTEN  =      -454.29596641 eV

  energy without entropy =     -454.29583797  energy(sigma->0) =     -454.29590219


--------------------------------------------------------------------------------------------------------




--------------------------------------- Iteration      1(   4)  ---------------------------------------


    POTLOK:  cpu time    0.0967: real time    0.0988
    SETDIJ:  cpu time    0.0794: real time    0.0811
    EDDIAG:  cpu time    0.6218: real time    0.6281
  RMM-DIIS:  cpu time    2.6543: real time    2.6781
    ORTHCH:  cpu time    0.0331: real time    0.0334
       DOS:  cpu time    0.0004: real time    0.0004
    CHARGE:  cpu time    0.3174: real time    0.3206
    MIXING:  cpu time    0.0056: real time    0.0056
    --------------------------------------------
      LOOP:  cpu time    3.8086: real time    3.8462

 eigenvalue-minimisations  :  1000
 total energy-change (2. order) :-0.7127180E-03  (-0.7380031E-03)
 number of electron     206.0000000 magnetization 
 augmentation part        5.5448454 magnetization 

 Broyden mixing:
  rms(total) = 0.37991E-02    rms(broyden)= 0.37989E-02
  rms(prec ) = 0.39289E-02
  weight for this iteration     100.00

 eigenvalues of (default mixing * dielectric matrix)
  average eigenvalue GAMMA=   1.2898
  0.6192  1.2546  1.9956

 Free energy of the ion-electron system (eV)
  ---------------------------------------------------
  alpha Z        PSCENC =        82.54348252
  Ewald energy   TEWEN  =     34517.17722704
  -Hartree energ DENC   =    -41035.09794010
  -exchange      EXHF   =         0.00000000
  -V(xc)+E(xc)   XCENC  =       721.37308684
  PAW double counting   =     22787.68337753   -22824.00712694
  entropy T*S    EENTRO =        -0.00012423
  eigenvalues    EBANDS =     -2492.59305141
  atomic energy  EATOM  =      7788.62438962
  Solvation  Ediel_sol  =         0.00000000
  ---------------------------------------------------
  free energy    TOTEN  =      -454.29667913 eV

  energy without entropy =     -454.29655490  energy(sigma->0) =     -454.29661701


--------------------------------------------------------------------------------------------------------




--------------------------------------- Iteration      1(   5)  ---------------------------------------


    POTLOK:  cpu time    0.0960: real time    0.0970
    SETDIJ:  cpu time    0.0790: real time    0.0796
    EDDIAG:  cpu time    0.6265: real time    0.6319
  RMM-DIIS:  cpu time    2.8857: real time    2.9120
    ORTHCH:  cpu time    0.0326: real time    0.0329
       DOS:  cpu time    0.0004: real time    0.0004
    CHARGE:  cpu time    0.3177: real time    0.3206
    MIXING:  cpu time    0.0061: real time    0.0064
    --------------------------------------------
      LOOP:  cpu time    4.0440: real time    4.0808

 eigenvalue-minimisations  :  1098
 total energy-change (2. order) :-0.6739415E-04  (-0.5963699E-04)
 number of electron     206.0000000 magnetization 
 augmentation part        5.5444593 magnetization 

 Broyden mixing:
  rms(total) = 0.54305E-03    rms(broyden)= 0.54061E-03
  rms(prec ) = 0.58639E-03
  weight for this iteration     100.00

 eigenvalues of (default mixing * dielectric matrix)
  average eigenvalue GAMMA=   1.2692
  2.2949  0.6161  1.0829  1.0829

 Free energy of the ion-electron system (eV)
  ---------------------------------------------------
  alpha Z        PSCENC =        82.54348252
  Ewald energy   TEWEN  =     34517.17722704
  -Hartree energ DENC   =    -41035.37575029
  -exchange      EXHF   =         0.00000000
  -V(xc)+E(xc)   XCENC  =       721.38492555
  PAW double counting   =     22780.15885879   -22816.48890135
  entropy T*S    EENTRO =        -0.00012552
  eigenvalues    EBANDS =     -2492.32085288
  atomic energy  EATOM  =      7788.62438962
  Solvation  Ediel_sol  =         0.00000000
  ---------------------------------------------------
  free energy    TOTEN  =      -454.29674652 eV

  energy without entropy =     -454.29662100  energy(sigma->0) =     -454.29668376


--------------------------------------------------------------------------------------------------------




--------------------------------------- Iteration      1(   6)  ---------------------------------------


    POTLOK:  cpu time    0.0970: real time    0.0990
    SETDIJ:  cpu time    0.0791: real time    0.0806
    EDDIAG:  cpu time    0.6253: real time    0.6308
  RMM-DIIS:  cpu time    2.2805: real time    2.3014
    ORTHCH:  cpu time    0.0351: real time    0.0353
       DOS:  cpu time    0.0003: real time    0.0003
    --------------------------------------------
      LOOP:  cpu time    3.1172: real time    3.1473

 eigenvalue-minimisations  :   827
 total energy-change (2. order) :-0.6387671E-05  (-0.4392729E-05)
 number of electron     206.0000000 magnetization 
 augmentation part        5.5444593 magnetization 

 Free energy of the ion-electron system (eV)
  ---------------------------------------------------
  alpha Z        PSCENC =        82.54348252
  Ewald energy   TEWEN  =     34517.17722704
  -Hartree energ DENC   =    -41035.37485183
  -exchange      EXHF   =         0.00000000
  -V(xc)+E(xc)   XCENC  =       721.38475778
  PAW double counting   =     22780.30512380   -22816.63494746
  entropy T*S    EENTRO =        -0.00012564
  eigenvalues    EBANDS =     -2492.32180874
  atomic energy  EATOM  =      7788.62438962
  Solvation  Ediel_sol  =         0.00000000
  ---------------------------------------------------
  free energy    TOTEN  =      -454.29675291 eV

  energy without entropy =     -454.29662727  energy(sigma->0) =     -454.29669009


--------------------------------------------------------------------------------------------------------




 average (electrostatic) potential at core
  the test charge radii are     0.6991  0.7215
  (the norm of the test charge is              1.0000)
       1 -58.2589       2 -58.2589       3 -58.2032       4 -58.0548       5 -58.2032
       6 -58.2595       7 -58.2742       8 -58.1340       9 -58.1340      10 -58.2742
      11 -58.2019      12 -58.1330      13 -60.6930      14 -58.1330      15 -58.2019
      16 -58.0589      17 -58.1331      18 -58.1331      19 -58.0589      20 -58.0644
      21 -58.2029      22 -58.2764      23 -58.2029      24 -58.0641      25 -58.0641
      26 -58.3804      27 -58.2905      28 -58.2209      29 -58.2209      30 -58.2905
      31 -58.2915      32 -58.3129      33 -58.8366      34 -58.3129      35 -58.2915
      36 -58.2210      37 -58.8100      38 -58.8100      39 -58.2210      40 -58.2224
      41 -58.2214      42 -58.3158      43 -58.2214      44 -58.1635      45 -58.1635
      46 -58.2928      47 -58.2928      48 -58.2222      49 -58.1617      50 -58.2222
      51 -81.6013
 
 
 
 E-fermi :  -3.0150     XC(G=0):  -2.2078     alpha+bet : -1.9409


 k-point     1 :       0.0000    0.0000    0.0000
  band No.  band energies     occupation 
      1     -31.7705      2.00000
      2     -22.2703      2.00000
      3     -21.5047      2.00000
      4     -21.5028      2.00000
      5     -21.3938      2.00000
      6     -21.3937      2.00000
      7     -21.3928      2.00000
      8     -20.8740      2.00000
      9     -19.8825      2.00000
     10     -19.8775      2.00000
     11     -19.5486      2.00000
     12     -19.5486      2.00000
     13     -19.5383      2.00000
     14     -19.1903      2.00000
     15     -18.9033      2.00000
     16     -18.9009      2.00000
     17     -18.6431      2.00000
     18     -18.6426      2.00000
     19     -18.6423      2.00000
     20     -17.8826      2.00000
     21     -17.0311      2.00000
     22     -17.0232      2.00000
     23     -16.4775      2.00000
     24     -16.4573      2.00000
     25     -16.4573      2.00000
     26     -16.0480      2.00000
     27     -15.9996      2.00000
     28     -15.9982      2.00000
     29     -15.4969      2.00000
     30     -15.4969      2.00000
     31     -15.4924      2.00000
     32     -15.0875      2.00000
     33     -14.6330      2.00000
     34     -14.6297      2.00000
     35     -14.1499      2.00000
     36     -14.1491      2.00000
     37     -14.1427      2.00000
     38     -13.9645      2.00000
     39     -12.9989      2.00000
     40     -12.9926      2.00000
     41     -12.0380      2.00000
     42     -11.7654      2.00000
     43     -11.7643      2.00000
     44     -11.7616      2.00000
     45     -11.6899      2.00000
     46     -11.6897      2.00000
     47     -11.6511      2.00000
     48     -11.6490      2.00000
     49     -11.6490      2.00000
     50     -11.6481      2.00000
     51     -10.8030      2.00000
     52     -10.8018      2.00000
     53     -10.4325      2.00000
     54     -10.3335      2.00000
     55     -10.2890      2.00000
     56     -10.2883      2.00000
     57     -10.2701      2.00000
     58     -10.0805      2.00000
     59      -9.6861      2.00000
     60      -9.6842      2.00000
     61      -9.3259      2.00000
     62      -9.3250      2.00000
     63      -9.2992      2.00000
     64      -9.2807      2.00000
     65      -9.2793      2.00000
     66      -9.0463      2.00000
     67      -9.0050      2.00000
     68      -9.0041      2.00000
     69      -8.9479      2.00000
     70      -8.9411      2.00000
     71      -8.9399      2.00000
     72      -8.9396      2.00000
     73      -8.9186      2.00000
     74      -8.9182      2.00000
     75      -8.8930      2.00000
     76      -8.4323      2.00000
     77      -7.8028      2.00000
     78      -7.8011      2.00000
     79      -7.3258      2.00000
     80      -7.3249      2.00000
     81      -7.3093      2.00000
     82      -7.3029      2.00000
     83      -7.3002      2.00000
     84      -7.2986      2.00000
     85      -7.1601      2.00000
     86      -7.1599      2.00000
     87      -7.1542      2.00000
     88      -6.7503      2.00000
     89      -6.5091      2.00000
     90      -6.5072      2.00000
     91      -6.2661      2.00000
     92      -6.2458      2.00000
     93      -6.2456      2.00000
     94      -5.9229      2.00000
     95      -5.9220      2.00000
     96      -5.1946      2.00000
     97      -4.7649      2.00000
     98      -4.7648      2.00000
     99      -4.2700      2.00000
    100      -4.2656      2.00000
    101      -4.2654      2.00000
    102      -3.2200      2.00000
    103      -3.2049      2.00000
    104      -2.9152      0.00477
    105      -1.4608      0.00000
    106      -1.4565      0.00000
    107      -1.4562      0.00000
    108      -0.9924      0.00000
    109      -0.9859      0.00000
    110      -0.5423      0.00000
    111       0.4177      0.00000
    112       0.4224      0.00000
    113       0.4224      0.00000
    114       0.5655      0.00000
    115       0.8428      0.00000
    116       0.8487      0.00000
    117       1.2946      0.00000
    118       1.3446      0.00000
    119       1.6769      0.00000
    120       1.8055      0.00000
    121       1.8065      0.00000
    122       1.8084      0.00000
    123       1.8288      0.00000
    124       1.8298      0.00000
    125       2.0297      0.00000
    126       2.1773      0.00000
    127       2.1800      0.00000
    128       2.1803      0.00000
    129       2.3467      0.00000
    130       2.3486      0.00000
    131       2.6069      0.00000
    132       2.6527      0.00000

 k-point     2 :       0.3333    0.0000    0.0000
  band No.  band energies     occupation 
      1     -31.7706      2.00000
      2     -22.1882      2.00000
      3     -21.8686      2.00000
      4     -21.6616      2.00000
      5     -21.4541      2.00000
      6     -21.0350      2.00000
      7     -20.8971      2.00000
      8     -20.7277      2.00000
      9     -20.4206      2.00000
     10     -20.1617      2.00000
     11     -19.7872      2.00000
     12     -19.7026      2.00000
     13     -19.3256      2.00000
     14     -19.2428      2.00000
     15     -19.0622      2.00000
     16     -18.5930      2.00000
     17     -18.4579      2.00000
     18     -18.1228      2.00000
     19     -18.0640      2.00000
     20     -17.5907      2.00000
     21     -17.4994      2.00000
     22     -17.2999      2.00000
     23     -17.2769      2.00000
     24     -16.8502      2.00000
     25     -16.6617      2.00000
     26     -16.1767      2.00000
     27     -15.9793      2.00000
     28     -15.8509      2.00000
     29     -15.2975      2.00000
     30     -15.1705      2.00000
     31     -15.1349      2.00000
     32     -14.8844      2.00000
     33     -14.7810      2.00000
     34     -14.4777      2.00000
     35     -14.4556      2.00000
     36     -13.7696      2.00000
     37     -13.7638      2.00000
     38     -13.1974      2.00000
     39     -13.0897      2.00000
     40     -12.9344      2.00000
     41     -12.9042      2.00000
     42     -12.5857      2.00000
     43     -12.5503      2.00000
     44     -12.3910      2.00000
     45     -12.0231      2.00000
     46     -11.6649      2.00000
     47     -11.4485      2.00000
     48     -11.2958      2.00000
     49     -11.1237      2.00000
     50     -10.9169      2.00000
     51     -10.8498      2.00000
     52     -10.5841      2.00000
     53     -10.5331      2.00000
     54     -10.2876      2.00000
     55     -10.2364      2.00000
     56     -10.1614      2.00000
     57     -10.0494      2.00000
     58      -9.8533      2.00000
     59      -9.8203      2.00000
     60      -9.6538      2.00000
     61      -9.6065      2.00000
     62      -9.5604      2.00000
     63      -9.5274      2.00000
     64      -9.3711      2.00000
     65      -9.3401      2.00000
     66      -9.2583      2.00000
     67      -9.1754      2.00000
     68      -9.0989      2.00000
     69      -9.0814      2.00000
     70      -8.8647      2.00000
     71      -8.7133      2.00000
     72      -8.6636      2.00000
     73      -8.5036      2.00000
     74      -8.4022      2.00000
     75      -8.2890      2.00000
     76      -8.1333      2.00000
     77      -8.0939      2.00000
     78      -8.0659      2.00000
     79      -7.9708      2.00000
     80      -7.8063      2.00000
     81      -7.6197      2.00000
     82      -7.3611      2.00000
     83      -7.3372      2.00000
     84      -7.2657      2.00000
     85      -7.1981      2.00000
     86      -6.9192      2.00000
     87      -6.8726      2.00000
     88      -6.6932      2.00000
     89      -6.5901      2.00000
     90      -6.3487      2.00000
     91      -6.1848      2.00000
     92      -6.0738      2.00000
     93      -5.9215      2.00000
     94      -5.7396      2.00000
     95      -5.6402      2.00000
     96      -5.3222      2.00000
     97      -5.1155      2.00000
     98      -4.9692      2.00000
     99      -4.9218      2.00000
    100      -4.2704      2.00000
    101      -4.1675      2.00000
    102      -3.3353      2.00000
    103      -3.1311      1.99898
    104      -2.8062      0.00000
    105      -1.5899      0.00000
    106      -1.4224      0.00000
    107      -0.8390      0.00000
    108      -0.8180      0.00000
    109      -0.7052      0.00000
    110      -0.6667      0.00000
    111      -0.1284      0.00000
    112      -0.0030      0.00000
    113       0.2936      0.00000
    114       0.7078      0.00000
    115       0.7280      0.00000
    116       1.1019      0.00000
    117       1.1764      0.00000
    118       1.3670      0.00000
    119       1.4697      0.00000
    120       1.5399      0.00000
    121       1.5725      0.00000
    122       1.6375      0.00000
    123       1.8263      0.00000
    124       1.9181      0.00000
    125       2.0411      0.00000
    126       2.2226      0.00000
    127       2.2673      0.00000
    128       2.3359      0.00000
    129       2.3465      0.00000
    130       2.3972      0.00000
    131       2.4586      0.00000
    132       2.7983      0.00000

 k-point     3 :       0.0000    0.3333    0.0000
  band No.  band energies     occupation 
      1     -31.7706      2.00000
      2     -22.1883      2.00000
      3     -21.8688      2.00000
      4     -21.6608      2.00000
      5     -21.4544      2.00000
      6     -21.0342      2.00000
      7     -20.8983      2.00000
      8     -20.7288      2.00000
      9     -20.4196      2.00000
     10     -20.1617      2.00000
     11     -19.7882      2.00000
     12     -19.7000      2.00000
     13     -19.3255      2.00000
     14     -19.2424      2.00000
     15     -19.0641      2.00000
     16     -18.5922      2.00000
     17     -18.4593      2.00000
     18     -18.1212      2.00000
     19     -18.0661      2.00000
     20     -17.5916      2.00000
     21     -17.4978      2.00000
     22     -17.3002      2.00000
     23     -17.2762      2.00000
     24     -16.8511      2.00000
     25     -16.6600      2.00000
     26     -16.1752      2.00000
     27     -15.9823      2.00000
     28     -15.8487      2.00000
     29     -15.2975      2.00000
     30     -15.1734      2.00000
     31     -15.1340      2.00000
     32     -14.8847      2.00000
     33     -14.7814      2.00000
     34     -14.4776      2.00000
     35     -14.4553      2.00000
     36     -13.7717      2.00000
     37     -13.7610      2.00000
     38     -13.1976      2.00000
     39     -13.0892      2.00000
     40     -12.9345      2.00000
     41     -12.9042      2.00000
     42     -12.5847      2.00000
     43     -12.5508      2.00000
     44     -12.3908      2.00000
     45     -12.0231      2.00000
     46     -11.6653      2.00000
     47     -11.4496      2.00000
     48     -11.2956      2.00000
     49     -11.1233      2.00000
     50     -10.9173      2.00000
     51     -10.8501      2.00000
     52     -10.5839      2.00000
     53     -10.5324      2.00000
     54     -10.2881      2.00000
     55     -10.2366      2.00000
     56     -10.1607      2.00000
     57     -10.0498      2.00000
     58      -9.8528      2.00000
     59      -9.8202      2.00000
     60      -9.6542      2.00000
     61      -9.6061      2.00000
     62      -9.5600      2.00000
     63      -9.5275      2.00000
     64      -9.3706      2.00000
     65      -9.3394      2.00000
     66      -9.2593      2.00000
     67      -9.1755      2.00000
     68      -9.0992      2.00000
     69      -9.0820      2.00000
     70      -8.8641      2.00000
     71      -8.7119      2.00000
     72      -8.6643      2.00000
     73      -8.5054      2.00000
     74      -8.4029      2.00000
     75      -8.2874      2.00000
     76      -8.1340      2.00000
     77      -8.0948      2.00000
     78      -8.0646      2.00000
     79      -7.9707      2.00000
     80      -7.8063      2.00000
     81      -7.6207      2.00000
     82      -7.3612      2.00000
     83      -7.3359      2.00000
     84      -7.2657      2.00000
     85      -7.1971      2.00000
     86      -6.9193      2.00000
     87      -6.8715      2.00000
     88      -6.6946      2.00000
     89      -6.5934      2.00000
     90      -6.3485      2.00000
     91      -6.1850      2.00000
     92      -6.0722      2.00000
     93      -5.9208      2.00000
     94      -5.7381      2.00000
     95      -5.6428      2.00000
     96      -5.3210      2.00000
     97      -5.1147      2.00000
     98      -4.9695      2.00000
     99      -4.9217      2.00000
    100      -4.2676      2.00000
    101      -4.1704      2.00000
    102      -3.3347      2.00000
    103      -3.1413      1.99965
    104      -2.7953      0.00000
    105      -1.5910      0.00000
    106      -1.4231      0.00000
    107      -0.8391      0.00000
    108      -0.8185      0.00000
    109      -0.7054      0.00000
    110      -0.6676      0.00000
    111      -0.1236      0.00000
    112      -0.0070      0.00000
    113       0.2940      0.00000
    114       0.7081      0.00000
    115       0.7272      0.00000
    116       1.1051      0.00000
    117       1.1773      0.00000
    118       1.3651      0.00000
    119       1.4708      0.00000
    120       1.5407      0.00000
    121       1.5729      0.00000
    122       1.6371      0.00000
    123       1.8275      0.00000
    124       1.9194      0.00000
    125       2.0411      0.00000
    126       2.2319      0.00000
    127       2.2752      0.00000
    128       2.3439      0.00000
    129       2.4291      0.00000
    130       2.7494      0.00000
    131       3.2576      0.00000
    132       3.6078      0.00000

 k-point     4 :      -0.3333    0.3333    0.0000
  band No.  band energies     occupation 
      1     -31.7706      2.00000
      2     -22.0798      2.00000
      3     -22.0071      2.00000
      4     -21.8012      2.00000
      5     -21.1728      2.00000
      6     -21.1507      2.00000
      7     -20.8668      2.00000
      8     -20.4153      2.00000
      9     -20.3404      2.00000
     10     -20.1713      2.00000
     11     -20.1495      2.00000
     12     -20.1422      2.00000
     13     -19.5663      2.00000
     14     -18.8303      2.00000
     15     -18.6781      2.00000
     16     -18.3719      2.00000
     17     -18.3480      2.00000
     18     -18.3356      2.00000
     19     -17.9293      2.00000
     20     -17.8034      2.00000
     21     -17.6022      2.00000
     22     -17.2604      2.00000
     23     -17.1532      2.00000
     24     -17.1212      2.00000
     25     -16.5415      2.00000
     26     -16.4412      2.00000
     27     -16.2865      2.00000
     28     -15.8073      2.00000
     29     -15.6297      2.00000
     30     -15.1739      2.00000
     31     -14.9755      2.00000
     32     -14.6558      2.00000
     33     -13.9600      2.00000
     34     -13.9388      2.00000
     35     -13.9241      2.00000
     36     -13.8735      2.00000
     37     -13.8633      2.00000
     38     -13.7913      2.00000
     39     -13.6758      2.00000
     40     -13.4946      2.00000
     41     -13.0409      2.00000
     42     -12.4767      2.00000
     43     -12.2537      2.00000
     44     -12.0715      2.00000
     45     -11.8239      2.00000
     46     -11.7780      2.00000
     47     -11.5631      2.00000
     48     -11.5453      2.00000
     49     -11.5221      2.00000
     50     -10.9302      2.00000
     51     -10.8191      2.00000
     52     -10.5354      2.00000
     53     -10.2052      2.00000
     54     -10.2031      2.00000
     55     -10.1934      2.00000
     56     -10.0940      2.00000
     57     -10.0553      2.00000
     58     -10.0214      2.00000
     59      -9.9027      2.00000
     60      -9.7510      2.00000
     61      -9.7482      2.00000
     62      -9.5641      2.00000
     63      -9.4405      2.00000
     64      -9.4072      2.00000
     65      -9.1975      2.00000
     66      -9.0461      2.00000
     67      -9.0328      2.00000
     68      -8.9019      2.00000
     69      -8.8857      2.00000
     70      -8.6879      2.00000
     71      -8.6368      2.00000
     72      -8.6349      2.00000
     73      -8.6234      2.00000
     74      -8.5808      2.00000
     75      -8.3738      2.00000
     76      -8.2518      2.00000
     77      -8.1643      2.00000
     78      -8.0375      2.00000
     79      -7.9847      2.00000
     80      -7.8788      2.00000
     81      -7.8571      2.00000
     82      -7.8541      2.00000
     83      -7.2248      2.00000
     84      -7.1861      2.00000
     85      -7.1272      2.00000
     86      -6.8833      2.00000
     87      -6.7216      2.00000
     88      -6.6127      2.00000
     89      -6.4594      2.00000
     90      -6.2701      2.00000
     91      -6.1038      2.00000
     92      -5.9159      2.00000
     93      -5.9102      2.00000
     94      -5.8968      2.00000
     95      -5.4535      2.00000
     96      -5.4247      2.00000
     97      -5.1215      2.00000
     98      -5.0132      2.00000
     99      -4.9795      2.00000
    100      -4.9569      2.00000
    101      -3.7322      2.00000
    102      -3.4577      2.00000
    103      -3.2776      2.00000
    104      -2.3850      0.00000
    105      -2.2234      0.00000
    106      -0.9275      0.00000
    107      -0.8812      0.00000
    108      -0.8670      0.00000
    109      -0.5375      0.00000
    110      -0.2622      0.00000
    111      -0.2108      0.00000
    112       0.2525      0.00000
    113       0.2591      0.00000
    114       0.2614      0.00000
    115       0.6010      0.00000
    116       0.7958      0.00000
    117       0.9518      0.00000
    118       0.9781      0.00000
    119       1.0626      0.00000
    120       1.7315      0.00000
    121       1.7559      0.00000
    122       1.7783      0.00000
    123       1.8243      0.00000
    124       2.1120      0.00000
    125       2.1214      0.00000
    126       2.1247      0.00000
    127       2.2491      0.00000
    128       2.2504      0.00000
    129       2.3624      0.00000
    130       3.0001      0.00000
    131       3.0147      0.00000
    132       3.0368      0.00000


--------------------------------------------------------------------------------------------------------


 soft charge-density along one line, spin component           1
         0         1         2         3         4         5         6         7         8         9
 total charge-density along one line
 
 pseudopotential strength for first ion, spin component:           1
 10.222  13.593   0.000  -0.000   0.000  -0.000   0.000  -0.000
 13.593  18.076   0.000  -0.000   0.000  -0.000   0.000  -0.000
  0.000   0.000  -4.352  -0.000  -0.000   8.512   0.000   0.000
 -0.000  -0.000  -0.000  -4.344  -0.000   0.000   8.502   0.000
  0.000   0.000  -0.000  -0.000  -4.352   0.000   0.000   8.513
 -0.000  -0.000   8.512   0.000   0.000 -18.786  -0.000  -0.000
  0.000   0.000   0.000   8.502   0.000  -0.000 -18.776  -0.000
 -0.000  -0.000   0.000   0.000   8.513  -0.000  -0.000 -18.787
 total augmentation occupancy for first ion, spin component:           1
  8.358  -3.741   0.001   0.000   0.003   0.000   0.000   0.001
 -3.741   1.730  -0.001  -0.000  -0.003  -0.000   0.000  -0.000
  0.001  -0.001   1.840  -0.000  -0.001   0.174   0.000   0.000
  0.000  -0.000  -0.000   1.223  -0.000   0.000   0.078   0.000
  0.003  -0.003  -0.001  -0.000   1.839   0.000   0.000   0.174
  0.000  -0.000   0.174   0.000   0.000   0.018   0.000   0.000
  0.000   0.000   0.000   0.078   0.000   0.000   0.005   0.000
  0.001  -0.000   0.000   0.000   0.174   0.000   0.000   0.018


------------------------ aborting loop because EDIFF is reached ----------------------------------------


    CHARGE:  cpu time    0.3213: real time    0.3242
    FORLOC:  cpu time    0.0315: real time    0.0318
    FORNL :  cpu time    1.6435: real time    1.6583
    STRESS:  cpu time    2.9197: real time    2.9461
    FORCOR:  cpu time    0.1189: real time    0.1201
    FORHAR:  cpu time    0.0495: real time    0.0498
    MIXING:  cpu time    0.0039: real time    0.0039
    OFIELD:  cpu time    0.0001: real time    0.0001

  FORCE on cell =-STRESS in cart. coord.  units (eV):
  Direction    XX          YY          ZZ          XY          YZ          ZX
  --------------------------------------------------------------------------------------
  Alpha Z    82.54348    82.54348    82.54348
  Ewald   41234.47310 41235.79265-47953.10919     0.00195     0.00227    -0.00002
  Hartree 40516.97869 40517.39503-39999.04358     0.00002    -0.17723     0.00000
  E(xc)    -777.15340  -777.14915  -804.23188     0.00001     0.00276    -0.00000
  Local  -83989.20869-83990.61552 85338.41304    -0.00050     0.23924     0.00001
  n-local  -203.97650  -203.91736  -194.74863    -0.19862     0.01796     0.20490
  augment   -12.36997   -12.39802   -14.04588    -0.00049    -0.00249    -0.00000
  Kinetic  3164.42189  3163.79003  3596.51848     3.20918    -0.22119    -1.71417
  Fock        0.00000     0.00000     0.00000     0.00000     0.00000     0.00000
  -------------------------------------------------------------------------------------
  Total      15.70860    15.44113    52.29584     0.00000    -0.13868    -0.00000
  in kB       9.60455     9.44102    31.97473     0.00000    -0.08479    -0.00000
  external pressure =       17.01 kB  Pullay stress =        0.00 kB


 VOLUME and BASIS-vectors are now :
 -----------------------------------------------------------------------------
  energy-cutoff  :      400.00
  volume of cell :     2620.42
      direct lattice vectors                 reciprocal lattice vectors
    12.300000191  0.000000000  0.000000000     0.081300812 -0.046939053  0.000000000
     6.150000804 10.652112223  0.000000000     0.000000000  0.093878095  0.000000000
     0.000000000  0.000000000 20.000000000     0.000000000  0.000000000  0.050000000

  length of vectors
    12.300000191 12.300000191 20.000000000     0.093878095  0.093878095  0.050000000


 FORCES acting on ions
    electron-ion (+dipol)            ewald-force                    non-local-force                 convergence-correction
 -----------------------------------------------------------------------------------------------
   -.148E+01 -.854E+00 0.281E+01   0.135E+01 0.778E+00 -.280E+01   0.863E-01 0.465E-01 0.104E-03   0.536E-04 0.445E-03 0.469E-03
   0.148E+01 -.854E+00 0.281E+01   -.135E+01 0.778E+00 -.280E+01   -.863E-01 0.465E-01 0.104E-03   -.418E-04 0.445E-03 0.469E-03
   0.369E+01 0.642E+01 0.386E+01   -.374E+01 -.649E+01 -.381E+01   -.113E+00 0.774E-01 -.741E-01   0.565E-03 0.961E-03 0.797E-03
   -.377E-05 0.129E+02 0.490E+01   -.525E-04 -.131E+02 -.505E+01   0.826E-09 0.124E-01 0.117E+00   0.592E-05 0.143E-02 0.105E-02
   -.369E+01 0.642E+01 0.386E+01   0.374E+01 -.649E+01 -.381E+01   0.113E+00 0.774E-01 -.741E-01   -.553E-03 0.961E-03 0.797E-03
   -.564E-05 0.171E+01 0.281E+01   -.505E-04 -.156E+01 -.280E+01   -.651E-08 -.977E-01 -.416E-03   0.589E-05 -.373E-03 0.502E-03
   0.117E+02 0.673E+01 0.494E+01   -.113E+02 -.655E+01 -.499E+01   0.107E+00 0.628E-01 0.498E-01   0.434E-03 0.261E-03 0.716E-03
   0.208E+02 0.362E+02 0.194E+02   -.214E+02 -.371E+02 -.198E+02   0.642E+00 0.664E+00 0.652E+00   0.962E-03 0.654E-03 0.360E-02
   -.208E+02 0.362E+02 0.194E+02   0.214E+02 -.371E+02 -.198E+02   -.642E+00 0.664E+00 0.652E+00   -.950E-03 0.654E-03 0.360E-02
   -.117E+02 0.673E+01 0.494E+01   0.113E+02 -.655E+01 -.499E+01   -.107E+00 0.628E-01 0.498E-01   -.422E-03 0.261E-03 0.716E-03
   0.741E+01 -.692E-02 0.383E+01   -.749E+01 -.126E-03 -.379E+01   0.100E-01 -.136E+00 -.716E-01   0.936E-03 0.116E-03 0.427E-03
   0.418E+02 -.280E-01 0.187E+02   -.428E+02 -.386E-03 -.191E+02   0.888E+00 0.230E+00 0.548E+00   0.634E-03 0.777E-04 0.103E-02
   -.530E-05 0.562E-01 0.291E+03   -.512E-04 -.890E-02 -.347E+03   -.320E-09 -.480E-02 0.720E+01   0.607E-05 -.142E-02 0.537E-02
   -.418E+02 -.280E-01 0.187E+02   0.428E+02 -.385E-03 -.191E+02   -.888E+00 0.230E+00 0.548E+00   -.622E-03 0.777E-04 0.103E-02
   -.741E+01 -.692E-02 0.383E+01   0.749E+01 -.126E-03 -.379E+01   -.100E-01 -.136E+00 -.716E-01   -.924E-03 0.116E-03 0.427E-03
   0.111E+02 -.643E+01 0.483E+01   -.113E+02 0.655E+01 -.497E+01   0.132E-01 -.654E-02 0.112E+00   0.664E-03 -.542E-03 0.404E-03
   0.209E+02 -.362E+02 0.187E+02   -.214E+02 0.371E+02 -.191E+02   0.250E+00 -.885E+00 0.550E+00   0.164E-03 0.871E-04 0.905E-03
   -.209E+02 -.362E+02 0.187E+02   0.214E+02 0.371E+02 -.191E+02   -.250E+00 -.885E+00 0.550E+00   -.152E-03 0.870E-04 0.905E-03
   -.111E+02 -.643E+01 0.483E+01   0.113E+02 0.655E+01 -.497E+01   -.132E-01 -.654E-02 0.112E+00   -.652E-03 -.542E-03 0.404E-03
   -.427E-05 -.148E+01 0.283E+01   -.519E-04 0.156E+01 -.280E+01   -.570E-08 -.857E-01 -.149E-01   0.588E-05 -.492E-03 0.441E-03
   0.371E+01 -.642E+01 0.383E+01   -.374E+01 0.649E+01 -.379E+01   0.125E+00 0.594E-01 -.717E-01   0.382E-03 -.741E-03 0.519E-03
   -.616E-05 -.135E+02 0.491E+01   -.500E-04 0.131E+02 -.496E+01   -.849E-08 -.128E+00 0.522E-01   0.589E-05 -.872E-03 0.457E-03
   -.371E+01 -.642E+01 0.383E+01   0.374E+01 0.649E+01 -.379E+01   -.125E+00 0.594E-01 -.717E-01   -.371E-03 -.741E-03 0.520E-03
   -.128E+01 0.740E+00 0.284E+01   0.135E+01 -.778E+00 -.281E+01   -.766E-01 0.410E-01 -.152E-01   -.429E-03 0.346E-03 0.654E-03
   0.128E+01 0.740E+00 0.284E+01   -.135E+01 -.778E+00 -.281E+01   0.766E-01 0.410E-01 -.152E-01   0.440E-03 0.346E-03 0.654E-03
   0.728E-04 -.302E-02 0.252E+01   0.528E-04 0.122E-03 -.252E+01   -.365E-10 -.548E-03 -.102E-01   -.109E-04 0.159E-04 0.412E-03
   0.531E+01 0.408E+01 0.345E+01   -.514E+01 -.429E+01 -.341E+01   -.704E-01 0.304E-02 -.247E-01   0.368E-03 0.760E-03 0.601E-03
   0.607E+01 0.171E+02 0.704E+01   -.581E+01 -.171E+02 -.666E+01   -.668E-01 0.169E+00 -.136E+00   0.417E-03 0.809E-03 0.157E-02
   -.607E+01 0.171E+02 0.704E+01   0.581E+01 -.171E+02 -.666E+01   0.668E-01 0.169E+00 -.136E+00   -.438E-03 0.809E-03 0.157E-02
   -.531E+01 0.408E+01 0.345E+01   0.514E+01 -.429E+01 -.341E+01   0.704E-01 0.304E-02 -.247E-01   -.390E-03 0.760E-03 0.601E-03
   0.618E+01 0.256E+01 0.344E+01   -.629E+01 -.230E+01 -.340E+01   -.329E-01 -.640E-01 -.237E-01   0.116E-02 0.134E-04 0.558E-03
   0.283E+02 0.163E+02 0.128E+02   -.286E+02 -.165E+02 -.133E+02   -.151E+00 -.953E-01 0.136E+00   0.628E-03 -.313E-03 0.145E-02
   0.103E-03 0.885E+02 0.538E+02   0.208E-04 -.931E+02 -.616E+02   -.258E-07 -.387E+00 0.331E+01   -.109E-04 0.732E-03 0.664E-02
   -.283E+02 0.163E+02 0.128E+02   0.286E+02 -.165E+02 -.133E+02   0.151E+00 -.953E-01 0.136E+00   -.650E-03 -.313E-03 0.145E-02
   -.618E+01 0.256E+01 0.344E+01   0.629E+01 -.230E+01 -.340E+01   0.329E-01 -.640E-01 -.237E-01   -.118E-02 0.133E-04 0.558E-03
   0.179E+02 -.331E+01 0.691E+01   -.177E+02 0.349E+01 -.653E+01   0.107E+00 -.136E+00 -.120E+00   0.245E-03 -.449E-03 0.485E-03
   0.760E+02 -.439E+02 0.588E+02   -.799E+02 0.461E+02 -.665E+02   -.573E+00 0.326E+00 0.325E+01   0.585E-03 -.118E-02 0.233E-02
   -.760E+02 -.439E+02 0.588E+02   0.799E+02 0.461E+02 -.665E+02   0.573E+00 0.326E+00 0.325E+01   -.607E-03 -.118E-02 0.233E-02
   -.179E+02 -.331E+01 0.691E+01   0.177E+02 0.349E+01 -.653E+01   -.107E+00 -.136E+00 -.120E+00   -.267E-03 -.449E-03 0.485E-03
   0.728E-04 -.611E+00 0.295E+01   0.529E-04 0.845E+00 -.292E+01   -.103E-07 -.154E+00 -.513E-01   -.109E-04 -.264E-03 0.238E-03
   0.118E+02 -.138E+02 0.690E+01   -.119E+02 0.136E+02 -.652E+01   0.171E+00 -.235E-01 -.118E+00   0.653E-03 -.253E-03 0.610E-03
   0.763E-04 -.327E+02 0.127E+02   0.493E-04 0.330E+02 -.132E+02   0.123E-07 0.184E+00 0.141E+00   -.110E-04 -.314E-04 0.622E-03
   -.118E+02 -.138E+02 0.690E+01   0.119E+02 0.136E+02 -.652E+01   -.171E+00 -.235E-01 -.118E+00   -.675E-03 -.253E-03 0.610E-03
   -.384E+01 -.221E+01 0.284E+01   0.378E+01 0.218E+01 -.288E+01   -.202E-01 -.117E-01 0.125E-01   -.462E-03 -.101E-02 0.493E-03
   0.384E+01 -.221E+01 0.284E+01   -.378E+01 0.218E+01 -.288E+01   0.202E-01 -.117E-01 0.125E-01   0.440E-03 -.101E-02 0.493E-03
   0.870E+00 -.663E+01 0.343E+01   -.115E+01 0.660E+01 -.339E+01   0.396E-01 0.588E-01 -.235E-01   0.391E-03 -.757E-03 0.466E-03
   -.870E+00 -.663E+01 0.343E+01   0.115E+01 0.660E+01 -.339E+01   -.396E-01 0.588E-01 -.235E-01   -.413E-03 -.757E-03 0.466E-03
   -.525E+00 0.302E+00 0.296E+01   0.732E+00 -.422E+00 -.293E+01   -.134E+00 0.776E-01 -.519E-01   -.593E-03 0.439E-03 0.635E-03
   0.753E-04 0.445E+01 0.286E+01   0.503E-04 -.437E+01 -.290E+01   0.154E-08 0.231E-01 0.138E-01   -.109E-04 0.165E-02 0.687E-03
   0.525E+00 0.302E+00 0.296E+01   -.732E+00 -.422E+00 -.293E+01   0.134E+00 0.776E-01 -.519E-01   0.571E-03 0.439E-03 0.635E-03
   -.289E-05 -.603E+00 -.722E+03   -.186E-04 0.934E+00 0.846E+03   -.279E-07 -.419E+00 -.638E+02   0.824E-05 -.105E-02 -.759E-03
 -----------------------------------------------------------------------------------------------
   0.172E-02 0.144E+00 0.438E+02   0.606E-16 -.363E-13 -.341E-12   -.949E-08 -.142E+00 -.439E+02   -.118E-03 -.123E-02 0.531E-01
 
 
 POSITION                                       TOTAL-FORCE (eV/Angst)
 -----------------------------------------------------------------------------------
      0.00000      0.00000      8.35995        -0.045277     -0.029462      0.010050
      2.46000      0.00000      8.35995         0.045277     -0.029462      0.010050
      4.92000      0.00000      8.35995        -0.163075      0.015716     -0.031280
      7.38000      0.00000      8.35995        -0.000000     -0.219346     -0.023627
      9.84000      0.00000      8.35995         0.163075      0.015716     -0.031280
      1.23000      2.13042      8.35995         0.000000      0.056270      0.009468
      3.69000      2.13042      8.35995         0.426799      0.244366     -0.003826
      6.15000      2.13042      8.35995         0.046576     -0.213794      0.223867
      8.61000      2.13042      8.35995        -0.046576     -0.213794      0.223867
     11.07000      2.13042      8.35995        -0.426799      0.244366     -0.003826
      2.46000      4.26084      8.35995        -0.067899     -0.143306     -0.025781
      4.92000      4.26084      8.35995        -0.122007      0.201669      0.165177
      7.38000      4.26084      8.35995         0.000000      0.041072    -48.209356
      9.84000      4.26084      8.35995         0.122007      0.201669      0.165177
     12.30000      4.26084      8.35995         0.067899     -0.143306     -0.025781
      3.69000      6.39127      8.35995        -0.174549      0.103762     -0.027294
      6.15000      6.39127      8.35995        -0.224990      0.008230      0.162884
      8.61000      6.39127      8.35995         0.224990      0.008230      0.162884
     11.07000      6.39127      8.35995         0.174549      0.103762     -0.027294
     13.53000      6.39127      8.35995        -0.000000     -0.011602      0.017907
      4.92000      8.52169      8.35995         0.091822      0.129459     -0.025388
      7.38000      8.52169      8.35995        -0.000000     -0.500251     -0.000421
      9.84000      8.52169      8.35995        -0.091822      0.129459     -0.025388
     12.30000      8.52169      8.35995        -0.014444      0.003291      0.017886
     14.76000      8.52169      8.35995         0.014444      0.003291      0.017886
      1.23000      0.71014      8.36012        -0.000000     -0.003447     -0.006067
      3.69000      0.71014      8.36012         0.099483     -0.215461      0.010577
      6.15000      0.71014      8.36012         0.193854      0.260692      0.253733
      8.61000      0.71014      8.36012        -0.193854      0.260692      0.253733
     11.07000      0.71014      8.36012        -0.099484     -0.215461      0.010577
      2.46000      2.84056      8.36012        -0.138754      0.191442      0.010167
      4.92000      2.84056      8.36012        -0.426379     -0.274493     -0.360088
      7.38000      2.84056      8.37012        -0.000000     -5.005749     -4.410015
      9.84000      2.84056      8.36012         0.426379     -0.274493     -0.360088
     12.30000      2.84056      8.36012         0.138754      0.191442      0.010167
      3.69000      4.97099      8.36012         0.313650      0.042527      0.258047
      6.15000      4.97099      8.36012        -4.429952      2.541866     -4.381049
      8.61000      4.97099      8.36012         4.429952      2.541866     -4.381049
     11.07000      4.97099      8.36012        -0.313650      0.042527      0.258047
     13.53000      4.97099      8.36012         0.000000      0.079597     -0.022440
      4.92000      7.10141      8.36012         0.113666     -0.291668      0.257751
      7.38000      7.10141      8.36012         0.000000      0.513981     -0.354339
      9.84000      7.10141      8.36012        -0.113666     -0.291668      0.257751
     12.30000      7.10141      8.36012        -0.079094     -0.043248     -0.026476
     14.76000      7.10141      8.36012         0.079094     -0.043248     -0.026476
      6.15000      9.23183      8.36012        -0.238572      0.026813      0.010071
      8.61000      9.23183      8.36012         0.238572      0.026813      0.010071
     11.07000      9.23183      8.36012         0.072428     -0.042063     -0.022004
     13.53000      9.23183      8.36012         0.000000      0.106089     -0.025796
     15.99000      9.23183      8.36012        -0.072428     -0.042063     -0.022004
      7.38000      4.26084      9.36012        -0.000000     -0.089288     60.070638
 -----------------------------------------------------------------------------------
    total drift:                                0.001599      0.000720     -0.002402


--------------------------------------------------------------------------------------------------------



  FREE ENERGIE OF THE ION-ELECTRON SYSTEM (eV)
  ---------------------------------------------------
  free  energy   TOTEN  =      -454.29675291 eV

  energy  without entropy=     -454.29662727  energy(sigma->0) =     -454.29669009
 


--------------------------------------------------------------------------------------------------------


    POTLOK:  cpu time    0.1832: real time    0.1832


--------------------------------------------------------------------------------------------------------


 stress matrix after NEB project (eV)
     15.70860      0.00000     -0.00000
      0.00000     15.44113     -0.13868
     -0.00000     -0.13868     52.29584
  FORCES: max atom, RMS    60.070704   10.911235
  FORCE total and by dimension   77.921802   60.070638
  Stress total and by dimension   56.745762   52.295836
     LOOP+:  cpu time   28.6261: real time   28.9039
    4ORBIT:  cpu time    0.0000: real time    0.0000

 total amount of memory used by VASP MPI-rank0    87233. kBytes
=======================================================================

   base      :      30000. kBytes
   nonl-proj :       7912. kBytes
   fftplans  :      26248. kBytes
   grid      :      14579. kBytes
   one-center:         21. kBytes
   wavefun   :       8473. kBytes
 
  
  
 General timing and accounting informations for this job:
 ========================================================
  
                  Total CPU time used (sec):       36.020
                            User time (sec):       33.627
                          System time (sec):        2.393
                         Elapsed time (sec):       36.414
  
                   Maximum memory used (kb):      371232.
                   Average memory used (kb):           0.
  
                          Minor page faults:        92534
                          Major page faults:            0
                 Voluntary context switches:         1263
