  51  51   0   0
  0.5138078E+02  0.1230000E-08  0.1230000E-08  0.2000000E-08  0.5000000E-15
  1.000000000000000E-004
  CAR 
                                         
      5.97905734    -33.53560386  301     -3.01666838      1.00000000
    -33.536  0.0000E+00  0.0000E+00
    -33.404  0.0000E+00  0.0000E+00
    -33.272  0.0000E+00  0.0000E+00
    -33.140  0.0000E+00  0.0000E+00
    -33.009  0.0000E+00  0.0000E+00
    -32.877  0.0000E+00  0.0000E+00
    -32.745  0.0000E+00  0.0000E+00
    -32.614  0.0000E+00  0.0000E+00
    -32.482  0.0000E+00  0.0000E+00
    -32.350  0.0000E+00  0.0000E+00
    -32.218  0.0000E+00  0.0000E+00
    -32.087  0.0000E+00  0.0000E+00
    -31.955  0.8177E-08  0.1077E-08
    -31.823  0.1343E+00  0.1769E-01
    -31.692  0.1371E+02  0.1824E+01
    -31.560  0.1336E+01  0.2000E+01
    -31.428  0.2883E-05  0.2000E+01
    -31.296  0.0000E+00  0.2000E+01
    -31.165  0.0000E+00  0.2000E+01
    -31.033  0.0000E+00  0.2000E+01
    -30.901  0.0000E+00  0.2000E+01
    -30.770  0.0000E+00  0.2000E+01
    -30.638  0.0000E+00  0.2000E+01
    -30.506  0.0000E+00  0.2000E+01
    -30.374  0.0000E+00  0.2000E+01
    -30.243  0.0000E+00  0.2000E+01
    -30.111  0.0000E+00  0.2000E+01
    -29.979  0.0000E+00  0.2000E+01
    -29.848  0.0000E+00  0.2000E+01
    -29.716  0.0000E+00  0.2000E+01
    -29.584  0.0000E+00  0.2000E+01
    -29.452  0.0000E+00  0.2000E+01
    -29.321  0.0000E+00  0.2000E+01
    -29.189  0.0000E+00  0.2000E+01
    -29.057  0.0000E+00  0.2000E+01
    -28.926  0.0000E+00  0.2000E+01
    -28.794  0.0000E+00  0.2000E+01
    -28.662  0.0000E+00  0.2000E+01
    -28.530  0.0000E+00  0.2000E+01
    -28.399  0.0000E+00  0.2000E+01
    -28.267  0.0000E+00  0.2000E+01
    -28.135  0.0000E+00  0.2000E+01
    -28.004  0.0000E+00  0.2000E+01
    -27.872  0.0000E+00  0.2000E+01
    -27.740  0.0000E+00  0.2000E+01
    -27.608  0.0000E+00  0.2000E+01
    -27.477  0.0000E+00  0.2000E+01
    -27.345  0.0000E+00  0.2000E+01
    -27.213  0.0000E+00  0.2000E+01
    -27.082  0.0000E+00  0.2000E+01
    -26.950  0.0000E+00  0.2000E+01
    -26.818  0.0000E+00  0.2000E+01
    -26.686  0.0000E+00  0.2000E+01
    -26.555  0.0000E+00  0.2000E+01
    -26.423  0.0000E+00  0.2000E+01
    -26.291  0.0000E+00  0.2000E+01
    -26.160  0.0000E+00  0.2000E+01
    -26.028  0.0000E+00  0.2000E+01
    -25.896  0.0000E+00  0.2000E+01
    -25.764  0.0000E+00  0.2000E+01
    -25.633  0.0000E+00  0.2000E+01
    -25.501  0.0000E+00  0.2000E+01
    -25.369  0.0000E+00  0.2000E+01
    -25.238  0.0000E+00  0.2000E+01
    -25.106  0.0000E+00  0.2000E+01
    -24.974  0.0000E+00  0.2000E+01
    -24.842  0.0000E+00  0.2000E+01
    -24.711  0.0000E+00  0.2000E+01
    -24.579  0.0000E+00  0.2000E+01
    -24.447  0.0000E+00  0.2000E+01
    -24.316  0.0000E+00  0.2000E+01
    -24.184  0.0000E+00  0.2000E+01
    -24.052  0.0000E+00  0.2000E+01
    -23.920  0.0000E+00  0.2000E+01
    -23.789  0.0000E+00  0.2000E+01
    -23.657  0.0000E+00  0.2000E+01
    -23.525  0.0000E+00  0.2000E+01
    -23.394  0.0000E+00  0.2000E+01
    -23.262  0.0000E+00  0.2000E+01
    -23.130  0.0000E+00  0.2000E+01
    -22.998  0.0000E+00  0.2000E+01
    -22.867  0.0000E+00  0.2000E+01
    -22.735  0.0000E+00  0.2000E+01
    -22.603  0.0000E+00  0.2000E+01
    -22.471  0.1026E-07  0.2000E+01
    -22.340  0.4110E-01  0.2005E+01
    -22.208  0.4460E+01  0.2593E+01
    -22.076  0.9169E+01  0.3801E+01
    -21.945  0.4921E+01  0.4449E+01
    -21.813  0.1076E+02  0.5866E+01
    -21.681  0.5562E+01  0.6598E+01
    -21.549  0.7612E+01  0.7601E+01
    -21.418  0.1285E+02  0.9293E+01
    -21.286  0.5362E+01  0.1000E+02
    -21.154  0.3884E+01  0.1051E+02
    -21.023  0.9257E+01  0.1173E+02
    -20.891  0.1111E+02  0.1319E+02
    -20.759  0.9730E+01  0.1448E+02
    -20.627  0.8180E+01  0.1555E+02
    -20.496  0.2123E+00  0.1558E+02
    -20.364  0.1330E+02  0.1733E+02
    -20.232  0.3820E+01  0.1784E+02
    -20.101  0.1862E+02  0.2029E+02
    -19.969  0.1209E+01  0.2045E+02
    -19.837  0.3733E+01  0.2094E+02
    -19.705  0.1408E+02  0.2279E+02
    -19.574  0.8357E+01  0.2389E+02
    -19.442  0.5860E+01  0.2467E+02
    -19.310  0.6889E+01  0.2557E+02
    -19.179  0.1411E+02  0.2743E+02
    -19.047  0.7638E+01  0.2844E+02
    -18.915  0.4598E+01  0.2904E+02
    -18.783  0.5117E+01  0.2972E+02
    -18.652  0.5508E+01  0.3044E+02
    -18.520  0.1368E+02  0.3224E+02
    -18.388  0.1145E+02  0.3375E+02
    -18.257  0.8567E+01  0.3488E+02
    -18.125  0.5128E+01  0.3556E+02
    -17.993  0.1505E+02  0.3754E+02
    -17.861  0.4771E+01  0.3817E+02
    -17.730  0.3709E+01  0.3866E+02
    -17.598  0.5988E+01  0.3944E+02
    -17.466  0.1590E+02  0.4154E+02
    -17.335  0.4107E+01  0.4208E+02
    -17.203  0.2123E+02  0.4488E+02
    -17.071  0.6768E+01  0.4577E+02
    -16.939  0.3467E+01  0.4622E+02
    -16.808  0.8861E+01  0.4739E+02
    -16.676  0.4416E+01  0.4797E+02
    -16.544  0.8570E+01  0.4910E+02
    -16.413  0.8912E+01  0.5028E+02
    -16.281  0.3141E+01  0.5069E+02
    -16.149  0.9399E+01  0.5193E+02
    -16.017  0.5985E+01  0.5272E+02
    -15.886  0.1288E+02  0.5441E+02
    -15.754  0.1182E+02  0.5597E+02
    -15.622  0.2280E+01  0.5627E+02
    -15.491  0.4229E+01  0.5683E+02
    -15.359  0.2621E+01  0.5717E+02
    -15.227  0.1028E+02  0.5853E+02
    -15.095  0.2209E+02  0.6143E+02
    -14.964  0.4610E+01  0.6204E+02
    -14.832  0.1159E+02  0.6357E+02
    -14.700  0.1026E+02  0.6492E+02
    -14.569  0.6377E+01  0.6576E+02
    -14.437  0.1617E+02  0.6789E+02
    -14.305  0.4210E+01  0.6844E+02
    -14.173  0.1166E+01  0.6860E+02
    -14.042  0.3943E+01  0.6912E+02
    -13.910  0.1048E+02  0.7050E+02
    -13.778  0.1660E+02  0.7268E+02
    -13.647  0.1765E+02  0.7501E+02
    -13.515  0.1758E+01  0.7524E+02
    -13.383  0.2392E+01  0.7556E+02
    -13.251  0.6075E+00  0.7564E+02
    -13.120  0.1121E+02  0.7711E+02
    -12.988  0.1408E+02  0.7897E+02
    -12.856  0.2031E+02  0.8164E+02
    -12.725  0.1030E+01  0.8178E+02
    -12.593  0.5244E+01  0.8247E+02
    -12.461  0.1735E+02  0.8475E+02
    -12.329  0.1076E+02  0.8617E+02
    -12.198  0.3550E+01  0.8664E+02
    -12.066  0.3540E+01  0.8711E+02
    -11.934  0.1179E+02  0.8866E+02
    -11.803  0.3779E+01  0.8916E+02
    -11.671  0.1644E+02  0.9132E+02
    -11.539  0.1754E+02  0.9363E+02
    -11.407  0.1332E+02  0.9539E+02
    -11.276  0.8474E+01  0.9650E+02
    -11.144  0.5656E+01  0.9725E+02
    -11.012  0.7460E+01  0.9823E+02
    -10.881  0.1346E+02  0.1000E+03
    -10.749  0.1652E+02  0.1022E+03
    -10.617  0.2307E+01  0.1025E+03
    -10.485  0.2049E+02  0.1052E+03
    -10.354  0.3697E+01  0.1057E+03
    -10.222  0.2527E+02  0.1090E+03
    -10.090  0.2493E+02  0.1123E+03
     -9.959  0.1813E+02  0.1147E+03
     -9.827  0.1550E+02  0.1167E+03
     -9.695  0.1712E+02  0.1190E+03
     -9.563  0.2808E+02  0.1227E+03
     -9.432  0.2040E+02  0.1253E+03
     -9.300  0.2746E+02  0.1290E+03
     -9.168  0.2349E+02  0.1321E+03
     -9.037  0.2861E+02  0.1358E+03
     -8.905  0.2055E+02  0.1385E+03
     -8.773  0.1658E+02  0.1407E+03
     -8.641  0.2426E+02  0.1439E+03
     -8.510  0.1699E+02  0.1462E+03
     -8.378  0.1665E+02  0.1483E+03
     -8.246  0.1467E+02  0.1503E+03
     -8.115  0.1688E+02  0.1525E+03
     -7.983  0.2827E+02  0.1562E+03
     -7.851  0.1614E+02  0.1584E+03
     -7.719  0.1581E+02  0.1604E+03
     -7.588  0.8161E+01  0.1615E+03
     -7.456  0.2081E+01  0.1618E+03
     -7.324  0.1918E+02  0.1643E+03
     -7.192  0.3189E+02  0.1685E+03
     -7.061  0.1457E+02  0.1704E+03
     -6.929  0.4887E+01  0.1711E+03
     -6.797  0.1889E+02  0.1736E+03
     -6.666  0.1299E+02  0.1753E+03
     -6.534  0.1587E+02  0.1774E+03
     -6.402  0.7003E+01  0.1783E+03
     -6.270  0.1272E+02  0.1800E+03
     -6.139  0.1536E+02  0.1820E+03
     -6.007  0.1343E+02  0.1838E+03
     -5.875  0.2071E+02  0.1865E+03
     -5.744  0.7744E+01  0.1875E+03
     -5.612  0.1352E+02  0.1893E+03
     -5.480  0.3017E+01  0.1897E+03
     -5.348  0.7879E+01  0.1907E+03
     -5.217  0.8520E+01  0.1918E+03
     -5.085  0.1235E+02  0.1935E+03
     -4.953  0.1879E+02  0.1959E+03
     -4.822  0.1409E+02  0.1978E+03
     -4.690  0.3163E+01  0.1982E+03
     -4.558  0.5911E-01  0.1982E+03
     -4.426  0.5386E-04  0.1982E+03
     -4.295  0.3317E+01  0.1987E+03
     -4.163  0.1753E+02  0.2010E+03
     -4.031  0.4456E+01  0.2016E+03
     -3.900  0.5344E-03  0.2016E+03
     -3.768  0.5512E+00  0.2016E+03
     -3.636  0.2813E+01  0.2020E+03
     -3.504  0.2794E+00  0.2020E+03
     -3.373  0.4613E+01  0.2026E+03
     -3.241  0.1230E+02  0.2043E+03
     -3.109  0.1099E+02  0.2057E+03
     -2.978  0.2255E+01  0.2060E+03
     -2.846  0.2745E+01  0.2064E+03
     -2.714  0.8942E+01  0.2075E+03
     -2.582  0.5894E-01  0.2076E+03
     -2.451  0.1252E+00  0.2076E+03
     -2.319  0.3176E+01  0.2080E+03
     -2.187  0.2995E+01  0.2084E+03
     -2.056  0.4529E+00  0.2084E+03
     -1.924  0.2279E-05  0.2084E+03
     -1.792  0.8546E-07  0.2084E+03
     -1.660  0.2766E+00  0.2085E+03
     -1.529  0.9642E+01  0.2098E+03
     -1.397  0.1310E+02  0.2115E+03
     -1.265  0.2292E+01  0.2118E+03
     -1.134  0.1112E-03  0.2118E+03
     -1.002  0.1301E+01  0.2119E+03
     -0.870  0.1167E+02  0.2135E+03
     -0.738  0.2290E+02  0.2165E+03
     -0.607  0.1783E+02  0.2189E+03
     -0.475  0.5172E+01  0.2195E+03
     -0.343  0.2296E+00  0.2196E+03
     -0.212  0.4914E+01  0.2202E+03
     -0.080  0.1117E+02  0.2217E+03
      0.052  0.1028E+02  0.2230E+03
      0.184  0.7571E+00  0.2231E+03
      0.315  0.1682E+02  0.2254E+03
      0.447  0.7108E+01  0.2263E+03
      0.579  0.3324E+01  0.2267E+03
      0.710  0.1200E+02  0.2283E+03
      0.842  0.1590E+02  0.2304E+03
      0.974  0.6315E+01  0.2312E+03
      1.106  0.1141E+02  0.2327E+03
      1.237  0.1433E+02  0.2346E+03
      1.369  0.8625E+01  0.2358E+03
      1.501  0.1522E+02  0.2378E+03
      1.632  0.2305E+02  0.2408E+03
      1.764  0.1578E+02  0.2429E+03
      1.896  0.2699E+02  0.2464E+03
      2.028  0.8260E+01  0.2475E+03
      2.159  0.1663E+02  0.2497E+03
      2.291  0.2623E+02  0.2532E+03
      2.423  0.2852E+02  0.2569E+03
      2.554  0.6681E+01  0.2578E+03
      2.686  0.6484E+01  0.2587E+03
      2.818  0.9173E+01  0.2599E+03
      2.950  0.4780E+01  0.2605E+03
      3.081  0.9306E+01  0.2617E+03
      3.213  0.2896E+01  0.2621E+03
      3.345  0.4268E+01  0.2627E+03
      3.476  0.1962E-01  0.2627E+03
      3.608  0.3708E+01  0.2632E+03
      3.740  0.3038E+01  0.2636E+03
      3.872  0.6125E-03  0.2636E+03
      4.003  0.6361E-06  0.2636E+03
      4.135  0.2961E+00  0.2636E+03
      4.267  0.3048E+01  0.2640E+03
      4.398  0.2995E-01  0.2640E+03
      4.530  0.1832E-08  0.2640E+03
      4.662  0.0000E+00  0.2640E+03
      4.794  0.0000E+00  0.2640E+03
      4.925  0.0000E+00  0.2640E+03
      5.057  0.0000E+00  0.2640E+03
      5.189  0.0000E+00  0.2640E+03
      5.320  0.0000E+00  0.2640E+03
      5.452  0.0000E+00  0.2640E+03
      5.584  0.0000E+00  0.2640E+03
      5.716  0.0000E+00  0.2640E+03
      5.847  0.0000E+00  0.2640E+03
      5.979  0.0000E+00  0.2640E+03
