 running on   48 total cores
 distrk:  each k-point on   48 cores,    1 groups
 distr:  one band on    8 cores,    6 groups
 using from now: INCAR     
 vasp.5.4.4.18Apr17-6-g9f103f2a35 (build Aug 13 2022 23:40:43) complex          
  
 POSCAR found type information on POSCAR  C  O 
 POSCAR found :  2 types and      51 ions
 scaLAPACK will be used

 ----------------------------------------------------------------------------- 
|                                                                             |
|  ADVICE TO THIS USER RUNNING 'VASP/VAMP'   (HEAR YOUR MASTER'S VOICE ...):  |
|                                                                             |
|      You have a (more or less) 'large supercell' and for larger cells       |
|      it might be more efficient to use real space projection opertators     |
|      So try LREAL= Auto  in the INCAR   file.                               |
|      Mind:          For very  accurate calculation you might also keep the  |
|      reciprocal projection scheme          (i.e. LREAL=.FALSE.)             |
|                                                                             |
 ----------------------------------------------------------------------------- 

 LDA part: xc-table for Pade appr. of Perdew
 POSCAR found type information on POSCAR  C  O 
 POSCAR found :  2 types and      51 ions
 found WAVECAR, reading the header
  number of k-points has changed, file:     3 present:     5
  trying to continue reading WAVECAR, but it might fail
 POSCAR, INCAR and KPOINTS ok, starting setup
 FFT: planning ...
 reading WAVECAR
 the WAVECAR file was read successfully
 charge-density read from file: 1.00000000000000                        
 entering main loop
       N       E                     dE             d eps       ncg     rms          rms(c)
DAV:   1    -0.453289015318E+03   -0.45329E+03   -0.28416E+02  1356   0.216E+01    0.496E-01
RMM:   2    -0.454276738597E+03   -0.98772E+00   -0.99020E+00  1415   0.566E+00    0.204E-01
RMM:   3    -0.454328961287E+03   -0.52223E-01   -0.58444E-01  1577   0.109E+00    0.155E-01
RMM:   4    -0.454332886013E+03   -0.39247E-02   -0.41176E-02  1572   0.312E-01    0.153E-01
RMM:   5    -0.454332986924E+03   -0.10091E-03   -0.32102E-03  1510   0.918E-02    0.589E-02
RMM:   6    -0.454333015696E+03   -0.28772E-04   -0.48304E-04  1529   0.453E-02    0.157E-02
RMM:   7    -0.454333022017E+03   -0.63214E-05   -0.22071E-05  1037   0.110E-02
   1 F= -.45433302E+03 E0= -.45433297E+03  d E =-.106424E-03
