 vasp.5.4.4.18Apr17-6-g9f103f2a35 (build Aug 13 2022 23:40:43) complex          
  
 executed on             LinuxIFC date 2024.11.10  04:16:30
 running on   48 total cores
 distrk:  each k-point on   48 cores,    1 groups
 distr:  one band on NCORES_PER_BAND=   8 cores,    6 groups


--------------------------------------------------------------------------------------------------------


 INCAR:
 POTCAR:    PAW_PBE C 08Apr2002                   
 POTCAR:    PAW_PBE O 08Apr2002                   
 POTCAR:    PAW_PBE C 08Apr2002                   
   VRHFIN =C: s2p2                                                              
   LEXCH  = PE                                                                  
   EATOM  =   147.1560 eV,   10.8157 Ry                                         
                                                                                
   TITEL  = PAW_PBE C 08Apr2002                                                 
   LULTRA =        F    use ultrasoft PP ?                                      
   IUNSCR =        1    unscreen: 0-lin 1-nonlin 2-no                           
   RPACOR =    1.200    partial core radius                                     
   POMASS =   12.011; ZVAL   =    4.000    mass and valenz                      
   RCORE  =    1.500    outmost cutoff radius                                   
   RWIGS  =    1.630; RWIGS  =    0.863    wigner-seitz radius (au A)           
   ENMAX  =  400.000; ENMIN  =  300.000 eV                                      
   ICORE  =        2    local potential                                         
   LCOR   =        T    correct aug charges                                     
   LPAW   =        T    paw PP                                                  
   EAUG   =  644.873                                                            
   DEXC   =    0.000                                                            
   RMAX   =    1.529    core radius for proj-oper                               
   RAUG   =    1.300    factor for augmentation sphere                          
   RDEP   =    1.501    radius for radial grids                                 
   RDEPT  =    1.300    core radius for aug-charge                              
                                                                                
   Atomic configuration                                                         
    4 entries                                                                   
     n  l   j            E        occ.                                          
     1  0  0.50      -273.3789   2.0000                                         
     2  0  0.50       -13.7508   2.0000                                         
     2  1  0.50        -5.2854   2.0000                                         
     3  2  1.50        -5.4423   0.0000                                         
   Description                                                                  
     l       E           TYP  RCUT    TYP  RCUT                                 
     0    -13.7508458     23  1.200                                             
     0     -8.2022199     23  1.200                                             
     1     -5.2854383     23  1.500                                             
     1     34.0145650     23  1.500                                             
     2     -5.4423304      7  1.500                                             
  local pseudopotential read in
  partial core-charges read in
  partial kinetic energy density read in
  atomic valenz-charges read in
  non local Contribution for L=           0  read in
    real space projection operators read in
  non local Contribution for L=           0  read in
    real space projection operators read in
  non local Contribution for L=           1  read in
    real space projection operators read in
  non local Contribution for L=           1  read in
    real space projection operators read in
    PAW grid and wavefunctions read in
 
   number of l-projection  operators is LMAX  =           4
   number of lm-projection operators is LMMAX =           8
 
 POTCAR:    PAW_PBE O 08Apr2002                   
   VRHFIN =O: s2p4                                                              
   LEXCH  = PE                                                                  
   EATOM  =   432.3788 eV,   31.7789 Ry                                         
                                                                                
   TITEL  = PAW_PBE O 08Apr2002                                                 
   LULTRA =        F    use ultrasoft PP ?                                      
   IUNSCR =        1    unscreen: 0-lin 1-nonlin 2-no                           
   RPACOR =    1.200    partial core radius                                     
   POMASS =   16.000; ZVAL   =    6.000    mass and valenz                      
   RCORE  =    1.520    outmost cutoff radius                                   
   RWIGS  =    1.550; RWIGS  =    0.820    wigner-seitz radius (au A)           
   ENMAX  =  400.000; ENMIN  =  300.000 eV                                      
   ICORE  =        2    local potential                                         
   LCOR   =        T    correct aug charges                                     
   LPAW   =        T    paw PP                                                  
   EAUG   =  605.392                                                            
   DEXC   =    0.000                                                            
   RMAX   =    1.553    core radius for proj-oper                               
   RAUG   =    1.300    factor for augmentation sphere                          
   RDEP   =    1.550    radius for radial grids                                 
   RDEPT  =    1.329    core radius for aug-charge                              
                                                                                
   Atomic configuration                                                         
    4 entries                                                                   
     n  l   j            E        occ.                                          
     1  0  0.50      -514.6923   2.0000                                         
     2  0  0.50       -23.9615   2.0000                                         
     2  1  0.50        -9.0305   4.0000                                         
     3  2  1.50        -9.5241   0.0000                                         
   Description                                                                  
     l       E           TYP  RCUT    TYP  RCUT                                 
     0    -23.9615318     23  1.200                                             
     0     -9.5240782     23  1.200                                             
     1     -9.0304911     23  1.520                                             
     1      8.1634956     23  1.520                                             
     2     -9.5240782      7  1.500                                             
  local pseudopotential read in
  partial core-charges read in
  partial kinetic energy density read in
  kinetic energy density of atom read in
  atomic valenz-charges read in
  non local Contribution for L=           0  read in
    real space projection operators read in
  non local Contribution for L=           0  read in
    real space projection operators read in
  non local Contribution for L=           1  read in
    real space projection operators read in
  non local Contribution for L=           1  read in
    real space projection operators read in
    PAW grid and wavefunctions read in
 
   number of l-projection  operators is LMAX  =           4
   number of lm-projection operators is LMMAX =           8
 

 ----------------------------------------------------------------------------- 
|                                                                             |
|  ADVICE TO THIS USER RUNNING 'VASP/VAMP'   (HEAR YOUR MASTER'S VOICE ...):  |
|                                                                             |
|      You have a (more or less) 'large supercell' and for larger cells       |
|      it might be more efficient to use real space projection opertators     |
|      So try LREAL= Auto  in the INCAR   file.                               |
|      Mind:          For very  accurate calculation you might also keep the  |
|      reciprocal projection scheme          (i.e. LREAL=.FALSE.)             |
|                                                                             |
 ----------------------------------------------------------------------------- 

  PAW_PBE C 08Apr2002                   :
 energy of atom  1       EATOM= -147.1560
 kinetic energy error for atom=    0.0288 (will be added to EATOM!!)
  PAW_PBE O 08Apr2002                   :
 energy of atom  2       EATOM= -432.3788
 kinetic energy error for atom=    0.1156 (will be added to EATOM!!)
 
 
 POSCAR: generated by phonopy                    
  positions in direct lattice
  No initial velocities read in
 exchange correlation table for  LEXCH =        8
   RHO(1)=    0.500       N(1)  =     2000
   RHO(2)=  100.500       N(2)  =     4000

 VTST: version 3.2, (02/03/18)

 CHAIN: initializing optimizer
 
 OPT: Using VASP Dynamics algorithm
 CHAIN: Read ICHAIN            0
 
 POSCAR: generated by phonopy                    
  positions in direct lattice
  No initial velocities read in
 


--------------------------------------------------------------------------------------------------------


 ion  position               nearest neighbor table
   1  0.000  0.000  0.418-  26 1.42  30 1.42  46 1.42
   2  0.200  0.000  0.418-  27 1.42  26 1.42  47 1.42
   3  0.400  0.000  0.418-  28 1.42  27 1.42  48 1.42
   4  0.600  0.000  0.418-  29 1.42  28 1.42  49 1.42
   5  0.800  0.000  0.418-  30 1.42  29 1.42  50 1.42
   6  0.000  0.200  0.418-  31 1.42  35 1.42  26 1.42
   7  0.200  0.200  0.418-  31 1.42  27 1.42  32 1.43
   8  0.400  0.200  0.418-  32 1.41  33 1.42  28 1.42
   9  0.600  0.200  0.418-  34 1.42  33 1.42  29 1.42
  10  0.800  0.200  0.418-  35 1.42  34 1.42  30 1.42
  11  0.000  0.400  0.418-  36 1.42  40 1.42  31 1.42
  12  0.200  0.400  0.418-  37 1.42  36 1.42  32 1.42
  13  0.400  0.400  0.418-  51 1.00  38 1.42  37 1.42  33 1.42
  14  0.600  0.400  0.418-  39 1.42  38 1.42  34 1.42
  15  0.800  0.400  0.418-  40 1.42  39 1.42  35 1.42
  16  0.000  0.600  0.418-  41 1.42  45 1.42  36 1.42
  17  0.200  0.600  0.418-  42 1.42  41 1.42  37 1.42
  18  0.400  0.600  0.418-  43 1.42  42 1.42  38 1.42
  19  0.600  0.600  0.418-  44 1.42  43 1.42  39 1.42
  20  0.800  0.600  0.418-  45 1.42  44 1.42  40 1.42
  21  0.000  0.800  0.418-  46 1.42  50 1.42  41 1.42
  22  0.200  0.800  0.418-  47 1.42  46 1.42  42 1.42
  23  0.400  0.800  0.418-  48 1.42  47 1.42  43 1.42
  24  0.600  0.800  0.418-  49 1.42  48 1.42  44 1.42
  25  0.800  0.800  0.418-  50 1.42  49 1.42  45 1.42
  26  0.067  0.067  0.418-   1 1.42   2 1.42   6 1.42
  27  0.267  0.067  0.418-   2 1.42   3 1.42   7 1.42
  28  0.467  0.067  0.418-   3 1.42   4 1.42   8 1.42
  29  0.667  0.067  0.418-   4 1.42   5 1.42   9 1.42
  30  0.867  0.067  0.418-   5 1.42   1 1.42  10 1.42
  31  0.067  0.267  0.418-   6 1.42   7 1.42  11 1.42
  32  0.267  0.267  0.418-   8 1.41  12 1.42   7 1.43
  33  0.467  0.267  0.418-   8 1.42   9 1.42  13 1.42  51 1.74
  34  0.667  0.267  0.418-   9 1.42  10 1.42  14 1.42
  35  0.867  0.267  0.418-  10 1.42   6 1.42  15 1.42
  36  0.067  0.467  0.418-  11 1.42  12 1.42  16 1.42
  37  0.267  0.467  0.418-  12 1.42  13 1.42  17 1.42  51 1.74
  38  0.467  0.467  0.418-  13 1.42  14 1.42  18 1.42  51 1.74
  39  0.667  0.467  0.418-  14 1.42  15 1.42  19 1.42
  40  0.867  0.467  0.418-  15 1.42  11 1.42  20 1.42
  41  0.067  0.667  0.418-  16 1.42  17 1.42  21 1.42
  42  0.267  0.667  0.418-  17 1.42  18 1.42  22 1.42
  43  0.467  0.667  0.418-  18 1.42  19 1.42  23 1.42
  44  0.667  0.667  0.418-  19 1.42  20 1.42  24 1.42
  45  0.867  0.667  0.418-  20 1.42  16 1.42  25 1.42
  46  0.067  0.867  0.418-  21 1.42  22 1.42   1 1.42
  47  0.267  0.867  0.418-  22 1.42  23 1.42   2 1.42
  48  0.467  0.867  0.418-  23 1.42  24 1.42   3 1.42
  49  0.667  0.867  0.418-  24 1.42  25 1.42   4 1.42
  50  0.867  0.867  0.418-  25 1.42  21 1.42   5 1.42
  51  0.400  0.400  0.468-  13 1.00  38 1.74  37 1.74  33 1.74
 
  LATTYP: Found a hexagonal cell.
 ALAT       =    12.2999994816
 C/A-ratio  =     1.6260163287
  
  Lattice vectors:
  
 A1 = (   6.1499993860, -10.6521122225,   0.0000000000)
 A2 = ( -12.3000001905,   0.0000000000,   0.0000000000)
 A3 = (   0.0000000000,   0.0000000000, -20.0000000000)


Analysis of symmetry for initial positions (statically):
=====================================================================
 Subroutine PRICEL returns:
 Original cell was already a primitive cell.
 

 Routine SETGRP: Setting up the symmetry group for a 
 hexagonal supercell.


 Subroutine GETGRP returns: Found  1 space group operations
 (whereof  1 operations were pure point group operations)
 out of a pool of 24 trial point group operations.


The static configuration has the point symmetry C_1 .


Analysis of symmetry for dynamics (positions and initial velocities):
=====================================================================
 Subroutine PRICEL returns:
 Original cell was already a primitive cell.
 

 Routine SETGRP: Setting up the symmetry group for a 
 hexagonal supercell.


 Subroutine GETGRP returns: Found  1 space group operations
 (whereof  1 operations were pure point group operations)
 out of a pool of 24 trial point group operations.


The dynamic configuration has the point symmetry C_1 .


 Subroutine INISYM returns: Found  1 space group operations
 (whereof  1 operations are pure point group operations),
 and found     1 'primitive' translations

 
 
 KPOINTS: K-POINTS                                

Automatic generation of k-mesh.
Space group operators:
 irot       det(A)        alpha          n_x          n_y          n_z        tau_x        tau_y        tau_z
    1     1.000000     0.000000     1.000000     0.000000     0.000000     0.000000     0.000000     0.000000
 
 Subroutine IBZKPT returns following result:
 ===========================================
 
 Found      5 irreducible k-points:
 
 Following reciprocal coordinates:
            Coordinates               Weight
  0.000000  0.000000  0.000000      1.000000
  0.333333  0.000000  0.000000      2.000000
  0.000000  0.333333  0.000000      2.000000
  0.333333  0.333333  0.000000      2.000000
 -0.333333  0.333333  0.000000      2.000000
 
 Following cartesian coordinates:
            Coordinates               Weight
  0.000000  0.000000  0.000000      1.000000
  0.027100 -0.015646  0.000000      2.000000
  0.000000  0.031293  0.000000      2.000000
  0.027100  0.015646  0.000000      2.000000
 -0.027100  0.046939  0.000000      2.000000
 


--------------------------------------------------------------------------------------------------------




 Dimension of arrays:
   k-points           NKPTS =      5   k-points in BZ     NKDIM =      5   number of bands    NBANDS=    132
   number of dos      NEDOS =    301   number of ions     NIONS =     51
   non local maximal  LDIM  =      4   non local SUM 2l+1 LMDIM =      8
   total plane-waves  NPLWV = 896000
   max r-space proj   IRMAX =      1   max aug-charges    IRDMAX=  35685
   dimension x,y,z NGX =    80 NGY =   80 NGZ =  140
   dimension x,y,z NGXF=   160 NGYF=  160 NGZF=  280
   support grid    NGXF=   320 NGYF=  320 NGZF=  560
   ions per type =              50   1
   NGX,Y,Z   is equivalent  to a cutoff of  10.81, 10.81, 11.64 a.u.
   NGXF,Y,Z  is equivalent  to a cutoff of  21.63, 21.63, 23.27 a.u.

 SYSTEM =                                          
 POSCAR =  generated by phonopy                    

 Startparameter for this run:
   NWRITE =      2    write-flag & timer
   PREC   = accura    normal or accurate (medium, high low for compatibility)
   ISTART =      1    job   : 0-new  1-cont  2-samecut
   ICHARG =      1    charge: 1-file 2-atom 10-const
   ISPIN  =      1    spin polarized calculation?
   LNONCOLLINEAR =      F non collinear calculations
   LSORBIT =      F    spin-orbit coupling
   INIWAV =      1    electr: 0-lowe 1-rand  2-diag
   LASPH  =      F    aspherical Exc in radial PAW
   METAGGA=      F    non-selfconsistent MetaGGA calc.

 Electronic Relaxation 1
   ENCUT  =  400.0 eV  29.40 Ry    5.42 a.u.  20.06 20.06 32.61*2*pi/ulx,y,z
   ENINI  =  400.0     initial cutoff
   ENAUG  =  644.9 eV  augmentation charge cutoff
   NELM   =    300;   NELMIN=  2; NELMDL=  0     # of ELM steps 
   EDIFF  = 0.1E-04   stopping-criterion for ELM
   LREAL  =      F    real-space projection
   NLSPLINE    = F    spline interpolate recip. space projectors
   LCOMPAT=      F    compatible to vasp.4.4
   GGA_COMPAT  = T    GGA compatible to vasp.4.4-vasp.4.6
   LMAXPAW     = -100 max onsite density
   LMAXMIX     =    2 max onsite mixed and CHGCAR
   VOSKOWN=      0    Vosko Wilk Nusair interpolation
   ROPT   =    0.00000   0.00000
 Ionic relaxation
   EDIFFG = -.1E-02   stopping-criterion for IOM
   NSW    =      1    number of steps for IOM
   NBLOCK =      1;   KBLOCK =      1    inner block; outer block 
   IBRION =     -1    ionic relax: 0-MD 1-quasi-New 2-CG
   NFREE  =      0    steps in history (QN), initial steepest desc. (CG)
   ISIF   =      2    stress and relaxation
   IWAVPR =     10    prediction:  0-non 1-charg 2-wave 3-comb
   ISYM   =      2    0-nonsym 1-usesym 2-fastsym
   LCORR  =      T    Harris-Foulkes like correction to forces

   POTIM  = 0.5000    time-step for ionic-motion
   TEIN   =    0.0    initial temperature
   TEBEG  =    0.0;   TEEND  =   0.0 temperature during run
   SMASS  =  -3.00    Nose mass-parameter (am)
   estimated Nose-frequenzy (Omega)   =  0.10E-29 period in steps =****** mass=  -0.346E-26a.u.
   SCALEE = 1.0000    scale energy and forces
   NPACO  =    256;   APACO  = 16.0  distance and # of slots for P.C.
   PSTRESS=    0.0 pullay stress

  Mass of Ions in am
   POMASS =  12.01 16.00
  Ionic Valenz
   ZVAL   =   4.00  6.00
  Atomic Wigner-Seitz radii
   RWIGS  =  -1.00 -1.00
  virtual crystal weights 
   VCA    =   1.00  1.00
   NELECT =     206.0000    total number of electrons
   NUPDOWN=      -1.0000    fix difference up-down

 DOS related values:
   EMIN   =  10.00;   EMAX   =-10.00  energy-range for DOS
   EFERMI =   0.00
   ISMEAR =     0;   SIGMA  =   0.05  broadening in eV -4-tet -1-fermi 0-gaus

 Electronic relaxation 2 (details)
   IALGO  =     68    algorithm
   LDIAG  =      T    sub-space diagonalisation (order eigenvalues)
   LSUBROT=      F    optimize rotation matrix (better conditioning)
   TURBO    =      0    0=normal 1=particle mesh
   IRESTART =      0    0=no restart 2=restart with 2 vectors
   NREBOOT  =      0    no. of reboots
   NMIN     =      0    reboot dimension
   EREF     =   0.00    reference energy to select bands
   IMIX   =      4    mixing-type and parameters
     AMIX     =   0.40;   BMIX     =  1.00
     AMIX_MAG =   1.60;   BMIX_MAG =  1.00
     AMIN     =   0.10
     WC   =   100.;   INIMIX=   1;  MIXPRE=   1;  MAXMIX= -45

 Intra band minimization:
   WEIMIN = 0.0000     energy-eigenvalue tresh-hold
   EBREAK =  0.19E-07  absolut break condition
   DEPER  =   0.30     relativ break condition  

   TIME   =   0.40     timestep for ELM

  volume/ion in A,a.u.               =      51.38       346.73
  Fermi-wavevector in a.u.,A,eV,Ry     =   0.701305  1.325274  6.691736  0.491829
  Thomas-Fermi vector in A             =   1.785695
 
 Write flags
   LWAVE        =      F    write WAVECAR
   LDOWNSAMPLE  =      F    k-point downsampling of WAVECAR
   LCHARG       =      F    write CHGCAR
   LVTOT        =      F    write LOCPOT, total local potential
   LVHAR        =      F    write LOCPOT, Hartree potential only
   LELF         =      F    write electronic localiz. function (ELF)
   LORBIT       =      0    0 simple, 1 ext, 2 COOP (PROOUT), +10 PAW based schemes


 Dipole corrections
   LMONO  =      F    monopole corrections only (constant potential shift)
   LDIPOL =      F    correct potential (dipole corrections)
   IDIPOL =      0    1-x, 2-y, 3-z, 4-all directions 
   EPSILON=  1.0000000 bulk dielectric constant

 Exchange correlation treatment:
   GGA     =    --    GGA type
   LEXCH   =     8    internal setting for exchange type
   VOSKOWN=      0    Vosko Wilk Nusair interpolation
   LHFCALC =     F    Hartree Fock is set to
   LHFONE  =     F    Hartree Fock one center treatment
   AEXX    =    0.0000 exact exchange contribution

 Linear response parameters
   LEPSILON=     F    determine dielectric tensor
   LRPA    =     F    only Hartree local field effects (RPA)
   LNABLA  =     F    use nabla operator in PAW spheres
   LVEL    =     F    velocity operator in full k-point grid
   LINTERFAST=   F  fast interpolation
   KINTER  =     0    interpolate to denser k-point grid
   CSHIFT  =0.1000    complex shift for real part using Kramers Kronig
   OMEGAMAX=  -1.0    maximum frequency
   DEG_THRESHOLD= 0.2000000E-02 threshold for treating states as degnerate
   RTIME   =   -0.100 relaxation time in fs
  (WPLASMAI=    0.000 imaginary part of plasma frequency in eV, 0.658/RTIME)
   DFIELD  = 0.0000000 0.0000000 0.0000000 field for delta impulse in time
 
 Orbital magnetization related:
   ORBITALMAG=     F  switch on orbital magnetization
   LCHIMAG   =     F  perturbation theory with respect to B field
   DQ        =  0.001000  dq finite difference perturbation B field
   LLRAUG    =     F  two centre corrections for induced B field



--------------------------------------------------------------------------------------------------------


 Static calculation
 charge density and potential will be updated during run
 non-spin polarized calculation
 RMM-DIIS sequential band-by-band and
  variant of blocked Davidson during initial phase
 perform sub-space diagonalisation
    before iterative eigenvector-optimisation
 modified Broyden-mixing scheme, WC =      100.0
 initial mixing is a Kerker type mixing with AMIX =  0.4000 and BMIX =      1.0000
 Hartree-type preconditioning will be used
 using additional bands           29
 reciprocal scheme for non local part
 use partial core corrections
 calculate Harris-corrections to forces 
   (improved forces if not selfconsistent)
 use gradient corrections 
 use of overlap-Matrix (Vanderbilt PP)
 Gauss-broadening in eV      SIGMA  =   0.05


--------------------------------------------------------------------------------------------------------


  energy-cutoff  :      400.00
  volume of cell :     2620.42
      direct lattice vectors                 reciprocal lattice vectors
    12.300000191  0.000000000  0.000000000     0.081300812 -0.046939053  0.000000000
     6.150000804 10.652112223  0.000000000     0.000000000  0.093878095  0.000000000
     0.000000000  0.000000000 20.000000000     0.000000000  0.000000000  0.050000000

  length of vectors
    12.300000191 12.300000191 20.000000000     0.093878095  0.093878095  0.050000000


 
 old parameters found on file WAVECAR:
  energy-cutoff  :      400.00
  volume of cell :     2620.42
      direct lattice vectors                 reciprocal lattice vectors
    12.300000191  0.000000000  0.000000000     0.081300812 -0.046939053  0.000000000
     6.150000804 10.652112223  0.000000000     0.000000000  0.093878095  0.000000000
     0.000000000  0.000000000 20.000000000     0.000000000  0.000000000  0.050000000

  length of vectors

 
 k-points in units of 2pi/SCALE and weight: K-POINTS                                
   0.00000000  0.00000000  0.00000000       0.111
   0.02710027 -0.01564635  0.00000000       0.222
   0.00000000  0.03129270  0.00000000       0.222
   0.02710027  0.01564635  0.00000000       0.222
  -0.02710027  0.04693905  0.00000000       0.222
 
 k-points in reciprocal lattice and weights: K-POINTS                                
   0.00000000  0.00000000  0.00000000       0.111
   0.33333333  0.00000000  0.00000000       0.222
   0.00000000  0.33333333  0.00000000       0.222
   0.33333333  0.33333333  0.00000000       0.222
  -0.33333333  0.33333333  0.00000000       0.222
 
 position of ions in fractional coordinates (direct lattice) 
   0.00000000  0.00000000  0.41799748
   0.20000000  0.00000000  0.41799748
   0.40000000  0.00000000  0.41799748
   0.60000000  0.00000000  0.41799748
   0.80000000  0.00000000  0.41799748
   0.00000000  0.20000000  0.41799748
   0.20000000  0.20000000  0.41799748
   0.40000000  0.20000000  0.41799748
   0.60000000  0.20000000  0.41799748
   0.80000000  0.20000000  0.41799748
   0.00000000  0.40000000  0.41799748
   0.20000000  0.40000000  0.41799748
   0.40000000  0.40000000  0.41799748
   0.60000000  0.40000000  0.41799748
   0.80000000  0.40000000  0.41799748
   0.00000000  0.60000000  0.41799748
   0.20000000  0.60000000  0.41799748
   0.40000000  0.60000000  0.41799748
   0.60000000  0.60000000  0.41799748
   0.80000000  0.60000000  0.41799748
   0.00000000  0.80000000  0.41799748
   0.20000000  0.80000000  0.41799748
   0.40000000  0.80000000  0.41799748
   0.60000000  0.80000000  0.41799748
   0.80000000  0.80000000  0.41799748
   0.06666667  0.06666660  0.41800609
   0.26666667  0.06666660  0.41800609
   0.46666667  0.06666660  0.41800609
   0.66666667  0.06666660  0.41800609
   0.86666667  0.06666660  0.41800609
   0.06666667  0.26666660  0.41800609
   0.26747968  0.26666660  0.41800609
   0.46666667  0.26666660  0.41800609
   0.66666667  0.26666660  0.41800609
   0.86666667  0.26666660  0.41800609
   0.06666667  0.46666660  0.41800609
   0.26666667  0.46666660  0.41800609
   0.46666667  0.46666660  0.41800609
   0.66666667  0.46666660  0.41800609
   0.86666667  0.46666660  0.41800609
   0.06666667  0.66666660  0.41800609
   0.26666667  0.66666660  0.41800609
   0.46666667  0.66666660  0.41800609
   0.66666667  0.66666660  0.41800609
   0.86666667  0.66666660  0.41800609
   0.06666667  0.86666660  0.41800609
   0.26666667  0.86666660  0.41800609
   0.46666667  0.86666660  0.41800609
   0.66666667  0.86666660  0.41800609
   0.86666667  0.86666660  0.41800609
   0.40000000  0.40000000  0.46800609
 
 position of ions in cartesian coordinates  (Angst):
   0.00000000  0.00000000  8.35994958
   2.46000004  0.00000000  8.35994958
   4.92000008  0.00000000  8.35994958
   7.38000011  0.00000000  8.35994958
   9.84000015  0.00000000  8.35994958
   1.23000016  2.13042244  8.35994958
   3.69000020  2.13042244  8.35994958
   6.15000024  2.13042244  8.35994958
   8.61000028  2.13042244  8.35994958
  11.07000031  2.13042244  8.35994958
   2.46000032  4.26084489  8.35994958
   4.92000036  4.26084489  8.35994958
   7.38000040  4.26084489  8.35994958
   9.84000044  4.26084489  8.35994958
  12.30000047  4.26084489  8.35994958
   3.69000048  6.39126733  8.35994958
   6.15000052  6.39126733  8.35994958
   8.61000056  6.39126733  8.35994958
  11.07000060  6.39126733  8.35994958
  13.53000064  6.39126733  8.35994958
   4.92000064  8.52168978  8.35994958
   7.38000068  8.52168978  8.35994958
   9.84000072  8.52168978  8.35994958
  12.30000076  8.52168978  8.35994958
  14.76000080  8.52168978  8.35994958
   1.22999970  0.71014014  8.36012184
   3.68999974  0.71014014  8.36012184
   6.14999977  0.71014014  8.36012184
   8.60999981  0.71014014  8.36012184
  11.06999985  0.71014014  8.36012184
   2.45999986  2.84056258  8.36012184
   4.92999990  2.84056258  8.36012184
   7.37999994  2.84056258  8.36012184
   9.83999997  2.84056258  8.36012184
  12.30000001  2.84056258  8.36012184
   3.69000002  4.97098503  8.36012184
   6.15000006  4.97098503  8.36012184
   8.61000010  4.97098503  8.36012184
  11.07000013  4.97098503  8.36012184
  13.53000017  4.97098503  8.36012184
   4.92000018  7.10140747  8.36012184
   7.38000022  7.10140747  8.36012184
   9.84000026  7.10140747  8.36012184
  12.30000030  7.10140747  8.36012184
  14.76000033  7.10140747  8.36012184
   6.15000034  9.23182991  8.36012184
   8.61000038  9.23182991  8.36012184
  11.07000042  9.23182991  8.36012184
  13.53000046  9.23182991  8.36012184
  15.99000049  9.23182991  8.36012184
   7.38000040  4.26084489  9.36012184
 


--------------------------------------------------------------------------------------------------------


 k-point  1 :   0.0000 0.0000 0.0000  plane waves:   47639
 k-point  2 :   0.3333 0.0000 0.0000  plane waves:   47601
 k-point  3 :   0.0000 0.3333 0.0000  plane waves:   47601
 k-point  4 :   0.3333 0.3333 0.0000  plane waves:   47601
 k-point  5 :  -0.3333 0.3333 0.0000  plane waves:   47598

 maximum and minimum number of plane-waves per node :      5975     5928

 maximum number of plane-waves:     47639
 maximum index in each direction: 
   IXMAX=   20   IYMAX=   20   IZMAX=   32
   IXMIN=  -20   IYMIN=  -20   IZMIN=  -32


 parallel 3D FFT for wavefunctions:
    minimum data exchange during FFTs selected (reduces bandwidth)
 parallel 3D FFT for charge:
    minimum data exchange during FFTs selected (reduces bandwidth)


 total amount of memory used by VASP MPI-rank0    90113. kBytes
=======================================================================

   base      :      30000. kBytes
   nonl-proj :       8674. kBytes
   fftplans  :      26248. kBytes
   grid      :      14579. kBytes
   one-center:         21. kBytes
   wavefun   :      10591. kBytes
 
     INWAV:  cpu time    0.8003: real time    0.8010
 Broyden mixing: mesh for mixing (old mesh)
   NGX = 41   NGY = 41   NGZ = 65
  (NGX  =160   NGY  =160   NGZ  =280)
  gives a total of 109265 points

 initial charge density was supplied:
 number of electron     206.0000000 magnetization 
 keeping initial charge density in first step


--------------------------------------------------------------------------------------------------------


 Maximum index for augmentation-charges         1119 (set IRDMAX)


--------------------------------------------------------------------------------------------------------


 First call to EWALD:  gamma=   0.129
 Maximum number of real-space cells 3x 3x 2
 Maximum number of reciprocal cells 3x 3x 4

    FEWALD:  cpu time    0.0030: real time    0.0030


--------------------------------------- Iteration      1(   1)  ---------------------------------------


    POTLOK:  cpu time    0.1061: real time    0.1079
    SETDIJ:  cpu time    0.0849: real time    0.0852
     EDDAV:  cpu time    4.1054: real time    4.1084
       DOS:  cpu time    0.0005: real time    0.0005
    CHARGE:  cpu time    0.3863: real time    0.3864
    MIXING:  cpu time    0.0059: real time    0.0060
    --------------------------------------------
      LOOP:  cpu time    4.6892: real time    4.6945

 eigenvalue-minimisations  :  1356
 total energy-change (2. order) :-0.4532890E+03  (-0.2841606E+02)
 number of electron     206.0000000 magnetization 
 augmentation part        5.5095880 magnetization 

 Broyden mixing:
  rms(total) = 0.49647E-01    rms(broyden)= 0.49617E-01
  rms(prec ) = 0.51108E-01
  weight for this iteration     100.00

 Free energy of the ion-electron system (eV)
  ---------------------------------------------------
  alpha Z        PSCENC =        82.54348252
  Ewald energy   TEWEN  =     34516.83768802
  -Hartree energ DENC   =    -41035.13802886
  -exchange      EXHF   =         0.00000000
  -V(xc)+E(xc)   XCENC  =       721.38027782
  PAW double counting   =     22781.19595426   -22817.52509957
  entropy T*S    EENTRO =        -0.00043448
  eigenvalues    EBANDS =     -2491.20724465
  atomic energy  EATOM  =      7788.62438962
  Solvation  Ediel_sol  =         0.00000000
  ---------------------------------------------------
  free energy    TOTEN  =      -453.28901532 eV

  energy without entropy =     -453.28858084  energy(sigma->0) =     -453.28879808


--------------------------------------------------------------------------------------------------------




--------------------------------------- Iteration      1(   2)  ---------------------------------------


    POTLOK:  cpu time    0.0989: real time    0.1000
    SETDIJ:  cpu time    0.0799: real time    0.0814
    EDDIAG:  cpu time    0.8828: real time    0.8835
  RMM-DIIS:  cpu time    3.7597: real time    3.7619
    ORTHCH:  cpu time    0.0406: real time    0.0406
       DOS:  cpu time    0.0004: real time    0.0004
    CHARGE:  cpu time    0.3845: real time    0.3849
    MIXING:  cpu time    0.0088: real time    0.0088
    --------------------------------------------
      LOOP:  cpu time    5.2557: real time    5.2615

 eigenvalue-minimisations  :  1415
 total energy-change (2. order) :-0.9877233E+00  (-0.9902044E+00)
 number of electron     206.0000000 magnetization 
 augmentation part        5.5408951 magnetization 

 Broyden mixing:
  rms(total) = 0.20416E-01    rms(broyden)= 0.20362E-01
  rms(prec ) = 0.21747E-01
  weight for this iteration     100.00

 eigenvalues of (default mixing * dielectric matrix)
  average eigenvalue GAMMA=   0.7400
  0.7400

 Free energy of the ion-electron system (eV)
  ---------------------------------------------------
  alpha Z        PSCENC =        82.54348252
  Ewald energy   TEWEN  =     34516.83768802
  -Hartree energ DENC   =    -41032.62419417
  -exchange      EXHF   =         0.00000000
  -V(xc)+E(xc)   XCENC  =       721.27366153
  PAW double counting   =     22842.33319584   -22878.61141946
  entropy T*S    EENTRO =        -0.00008865
  eigenvalues    EBANDS =     -2494.65345384
  atomic energy  EATOM  =      7788.62438962
  Solvation  Ediel_sol  =         0.00000000
  ---------------------------------------------------
  free energy    TOTEN  =      -454.27673860 eV

  energy without entropy =     -454.27664994  energy(sigma->0) =     -454.27669427


--------------------------------------------------------------------------------------------------------




--------------------------------------- Iteration      1(   3)  ---------------------------------------


    POTLOK:  cpu time    0.1009: real time    0.1033
    SETDIJ:  cpu time    0.0805: real time    0.0824
    EDDIAG:  cpu time    0.8816: real time    0.8822
  RMM-DIIS:  cpu time    4.1485: real time    4.1529
    ORTHCH:  cpu time    0.0409: real time    0.0411
       DOS:  cpu time    0.0005: real time    0.0005
    CHARGE:  cpu time    0.3861: real time    0.3862
    MIXING:  cpu time    0.0043: real time    0.0043
    --------------------------------------------
      LOOP:  cpu time    5.6433: real time    5.6528

 eigenvalue-minimisations  :  1577
 total energy-change (2. order) :-0.5222269E-01  (-0.5844420E-01)
 number of electron     206.0000000 magnetization 
 augmentation part        5.5434802 magnetization 

 Broyden mixing:
  rms(total) = 0.15532E-01    rms(broyden)= 0.15519E-01
  rms(prec ) = 0.16091E-01
  weight for this iteration     100.00

 eigenvalues of (default mixing * dielectric matrix)
  average eigenvalue GAMMA=   0.6869
  0.6869  0.6869

 Free energy of the ion-electron system (eV)
  ---------------------------------------------------
  alpha Z        PSCENC =        82.54348252
  Ewald energy   TEWEN  =     34516.83768802
  -Hartree energ DENC   =    -41033.31139968
  -exchange      EXHF   =         0.00000000
  -V(xc)+E(xc)   XCENC  =       721.30579851
  PAW double counting   =     22831.02961218   -22867.32251454
  entropy T*S    EENTRO =        -0.00011580
  eigenvalues    EBANDS =     -2494.03590212
  atomic energy  EATOM  =      7788.62438962
  Solvation  Ediel_sol  =         0.00000000
  ---------------------------------------------------
  free energy    TOTEN  =      -454.32896129 eV

  energy without entropy =     -454.32884548  energy(sigma->0) =     -454.32890339


--------------------------------------------------------------------------------------------------------




--------------------------------------- Iteration      1(   4)  ---------------------------------------


    POTLOK:  cpu time    0.0974: real time    0.0984
    SETDIJ:  cpu time    0.0795: real time    0.0808
    EDDIAG:  cpu time    0.8766: real time    0.8772
  RMM-DIIS:  cpu time    4.1103: real time    4.1141
    ORTHCH:  cpu time    0.0406: real time    0.0408
       DOS:  cpu time    0.0004: real time    0.0004
    CHARGE:  cpu time    0.3832: real time    0.3836
    MIXING:  cpu time    0.0042: real time    0.0042
    --------------------------------------------
      LOOP:  cpu time    5.5922: real time    5.5994

 eigenvalue-minimisations  :  1572
 total energy-change (2. order) :-0.3924727E-02  (-0.4117635E-02)
 number of electron     206.0000000 magnetization 
 augmentation part        5.5459941 magnetization 

 Broyden mixing:
  rms(total) = 0.15310E-01    rms(broyden)= 0.15309E-01
  rms(prec ) = 0.15790E-01
  weight for this iteration     100.00

 eigenvalues of (default mixing * dielectric matrix)
  average eigenvalue GAMMA=   1.0003
  1.2246  1.2246  0.5518

 Free energy of the ion-electron system (eV)
  ---------------------------------------------------
  alpha Z        PSCENC =        82.54348252
  Ewald energy   TEWEN  =     34516.83768802
  -Hartree energ DENC   =    -41033.65382170
  -exchange      EXHF   =         0.00000000
  -V(xc)+E(xc)   XCENC  =       721.32117240
  PAW double counting   =     22822.23547556   -22858.53613156
  entropy T*S    EENTRO =        -0.00010059
  eigenvalues    EBANDS =     -2493.70504028
  atomic energy  EATOM  =      7788.62438962
  Solvation  Ediel_sol  =         0.00000000
  ---------------------------------------------------
  free energy    TOTEN  =      -454.33288601 eV

  energy without entropy =     -454.33278542  energy(sigma->0) =     -454.33283572


--------------------------------------------------------------------------------------------------------




--------------------------------------- Iteration      1(   5)  ---------------------------------------


    POTLOK:  cpu time    0.0991: real time    0.0994
    SETDIJ:  cpu time    0.0798: real time    0.0798
    EDDIAG:  cpu time    0.8763: real time    0.8766
  RMM-DIIS:  cpu time    4.0129: real time    4.0178
    ORTHCH:  cpu time    0.0410: real time    0.0412
       DOS:  cpu time    0.0004: real time    0.0004
    CHARGE:  cpu time    0.3862: real time    0.3863
    MIXING:  cpu time    0.0048: real time    0.0048
    --------------------------------------------
      LOOP:  cpu time    5.5004: real time    5.5062

 eigenvalue-minimisations  :  1510
 total energy-change (2. order) :-0.1009107E-03  (-0.3210150E-03)
 number of electron     206.0000000 magnetization 
 augmentation part        5.5449378 magnetization 

 Broyden mixing:
  rms(total) = 0.58932E-02    rms(broyden)= 0.58922E-02
  rms(prec ) = 0.60493E-02
  weight for this iteration     100.00

 eigenvalues of (default mixing * dielectric matrix)
  average eigenvalue GAMMA=   1.1588
  1.5216  1.5216  0.5666  1.0256

 Free energy of the ion-electron system (eV)
  ---------------------------------------------------
  alpha Z        PSCENC =        82.54348252
  Ewald energy   TEWEN  =     34516.83768802
  -Hartree energ DENC   =    -41034.58917195
  -exchange      EXHF   =         0.00000000
  -V(xc)+E(xc)   XCENC  =       721.36039039
  PAW double counting   =     22794.30416937   -22830.62513584
  entropy T*S    EENTRO =        -0.00010419
  eigenvalues    EBANDS =     -2492.78869486
  atomic energy  EATOM  =      7788.62438962
  Solvation  Ediel_sol  =         0.00000000
  ---------------------------------------------------
  free energy    TOTEN  =      -454.33298692 eV

  energy without entropy =     -454.33288273  energy(sigma->0) =     -454.33293483


--------------------------------------------------------------------------------------------------------




--------------------------------------- Iteration      1(   6)  ---------------------------------------


    POTLOK:  cpu time    0.0977: real time    0.1007
    SETDIJ:  cpu time    0.0785: real time    0.0808
    EDDIAG:  cpu time    0.8728: real time    0.8818
  RMM-DIIS:  cpu time    3.9696: real time    4.0083
    ORTHCH:  cpu time    0.0404: real time    0.0409
       DOS:  cpu time    0.0005: real time    0.0005
    CHARGE:  cpu time    0.3810: real time    0.3848
    MIXING:  cpu time    0.0042: real time    0.0042
    --------------------------------------------
      LOOP:  cpu time    5.4448: real time    5.5019

 eigenvalue-minimisations  :  1529
 total energy-change (2. order) :-0.2877165E-04  (-0.4830438E-04)
 number of electron     206.0000000 magnetization 
 augmentation part        5.5443448 magnetization 

 Broyden mixing:
  rms(total) = 0.15650E-02    rms(broyden)= 0.15634E-02
  rms(prec ) = 0.16328E-02
  weight for this iteration     100.00

 eigenvalues of (default mixing * dielectric matrix)
  average eigenvalue GAMMA=   1.2157
  2.1484  1.2083  1.2083  0.9485  0.5652

 Free energy of the ion-electron system (eV)
  ---------------------------------------------------
  alpha Z        PSCENC =        82.54348252
  Ewald energy   TEWEN  =     34516.83768802
  -Hartree energ DENC   =    -41035.22252807
  -exchange      EXHF   =         0.00000000
  -V(xc)+E(xc)   XCENC  =       721.38685770
  PAW double counting   =     22775.38785241   -22811.72160766
  entropy T*S    EENTRO =        -0.00010541
  eigenvalues    EBANDS =     -2492.16904483
  atomic energy  EATOM  =      7788.62438962
  Solvation  Ediel_sol  =         0.00000000
  ---------------------------------------------------
  free energy    TOTEN  =      -454.33301570 eV

  energy without entropy =     -454.33291028  energy(sigma->0) =     -454.33296299


--------------------------------------------------------------------------------------------------------




--------------------------------------- Iteration      1(   7)  ---------------------------------------


    POTLOK:  cpu time    0.0968: real time    0.0980
    SETDIJ:  cpu time    0.0785: real time    0.0794
    EDDIAG:  cpu time    0.8896: real time    0.8977
  RMM-DIIS:  cpu time    2.8697: real time    2.8972
    ORTHCH:  cpu time    0.0405: real time    0.0410
       DOS:  cpu time    0.0005: real time    0.0005
    --------------------------------------------
      LOOP:  cpu time    3.9755: real time    4.0137

 eigenvalue-minimisations  :  1037
 total energy-change (2. order) :-0.6321447E-05  (-0.2207146E-05)
 number of electron     206.0000000 magnetization 
 augmentation part        5.5443448 magnetization 

 Free energy of the ion-electron system (eV)
  ---------------------------------------------------
  alpha Z        PSCENC =        82.54348252
  Ewald energy   TEWEN  =     34516.83768802
  -Hartree energ DENC   =    -41035.22307793
  -exchange      EXHF   =         0.00000000
  -V(xc)+E(xc)   XCENC  =       721.38644215
  PAW double counting   =     22776.95991785   -22813.29277323
  entropy T*S    EENTRO =        -0.00010642
  eigenvalues    EBANDS =     -2492.16898460
  atomic energy  EATOM  =      7788.62438962
  Solvation  Ediel_sol  =         0.00000000
  ---------------------------------------------------
  free energy    TOTEN  =      -454.33302202 eV

  energy without entropy =     -454.33291559  energy(sigma->0) =     -454.33296881


--------------------------------------------------------------------------------------------------------




 average (electrostatic) potential at core
  the test charge radii are     0.6991  0.7215
  (the norm of the test charge is              1.0000)
       1 -58.2594       2 -58.2580       3 -58.2038       4 -58.0586       5 -58.2035
       6 -58.2605       7 -58.2762       8 -58.1332       9 -58.1324      10 -58.2754
      11 -58.2018      12 -58.1302      13 -60.6852      14 -58.1326      15 -58.2030
      16 -58.0585      17 -58.1294      18 -58.1322      19 -58.0581      20 -58.0651
      21 -58.2025      22 -58.2749      23 -58.2025      24 -58.0657      25 -58.0649
      26 -58.3802      27 -58.2893      28 -58.2236      29 -58.2225      30 -58.2923
      31 -58.2922      32 -58.3153      33 -58.8143      34 -58.3142      35 -58.2922
      36 -58.2228      37 -58.8046      38 -58.8111      39 -58.2210      40 -58.2223
      41 -58.2204      42 -58.3137      43 -58.2208      44 -58.1639      45 -58.1638
      46 -58.2921      47 -58.2923      48 -58.2228      49 -58.1635      50 -58.2222
      51 -81.5728
 
 
 
 E-fermi :  -3.0167     XC(G=0):  -2.2104     alpha+bet : -1.9409


 k-point     1 :       0.0000    0.0000    0.0000
  band No.  band energies     occupation 
      1     -31.7394      2.00000
      2     -22.2701      2.00000
      3     -21.5047      2.00000
      4     -21.5010      2.00000
      5     -21.3945      2.00000
      6     -21.3938      2.00000
      7     -21.3922      2.00000
      8     -20.8770      2.00000
      9     -19.8792      2.00000
     10     -19.8759      2.00000
     11     -19.5502      2.00000
     12     -19.5465      2.00000
     13     -19.5379      2.00000
     14     -19.1916      2.00000
     15     -18.9013      2.00000
     16     -18.9003      2.00000
     17     -18.6484      2.00000
     18     -18.6419      2.00000
     19     -18.6376      2.00000
     20     -17.8823      2.00000
     21     -17.0222      2.00000
     22     -17.0206      2.00000
     23     -16.4803      2.00000
     24     -16.4580      2.00000
     25     -16.4512      2.00000
     26     -16.0499      2.00000
     27     -15.9988      2.00000
     28     -15.9976      2.00000
     29     -15.5021      2.00000
     30     -15.4962      2.00000
     31     -15.4932      2.00000
     32     -15.0879      2.00000
     33     -14.6287      2.00000
     34     -14.6262      2.00000
     35     -14.1537      2.00000
     36     -14.1452      2.00000
     37     -14.1424      2.00000
     38     -13.9646      2.00000
     39     -12.9907      2.00000
     40     -12.9892      2.00000
     41     -12.0312      2.00000
     42     -11.7677      2.00000
     43     -11.7642      2.00000
     44     -11.7603      2.00000
     45     -11.6963      2.00000
     46     -11.6898      2.00000
     47     -11.6518      2.00000
     48     -11.6512      2.00000
     49     -11.6488      2.00000
     50     -11.6433      2.00000
     51     -10.8021      2.00000
     52     -10.8000      2.00000
     53     -10.4286      2.00000
     54     -10.3336      2.00000
     55     -10.2922      2.00000
     56     -10.2881      2.00000
     57     -10.2683      2.00000
     58     -10.0725      2.00000
     59      -9.6869      2.00000
     60      -9.6853      2.00000
     61      -9.3253      2.00000
     62      -9.3229      2.00000
     63      -9.2993      2.00000
     64      -9.2810      2.00000
     65      -9.2787      2.00000
     66      -9.0460      2.00000
     67      -9.0053      2.00000
     68      -8.9981      2.00000
     69      -8.9529      2.00000
     70      -8.9406      2.00000
     71      -8.9378      2.00000
     72      -8.9367      2.00000
     73      -8.9268      2.00000
     74      -8.9187      2.00000
     75      -8.8947      2.00000
     76      -8.4376      2.00000
     77      -7.8023      2.00000
     78      -7.7972      2.00000
     79      -7.3266      2.00000
     80      -7.3201      2.00000
     81      -7.3104      2.00000
     82      -7.3012      2.00000
     83      -7.3002      2.00000
     84      -7.2992      2.00000
     85      -7.1619      2.00000
     86      -7.1591      2.00000
     87      -7.1540      2.00000
     88      -6.7520      2.00000
     89      -6.5075      2.00000
     90      -6.5071      2.00000
     91      -6.2632      2.00000
     92      -6.2509      2.00000
     93      -6.2459      2.00000
     94      -5.9269      2.00000
     95      -5.9174      2.00000
     96      -5.1947      2.00000
     97      -4.7651      2.00000
     98      -4.7638      2.00000
     99      -4.2712      2.00000
    100      -4.2662      2.00000
    101      -4.2607      2.00000
    102      -3.2158      2.00000
    103      -3.2143      2.00000
    104      -2.9148      0.00396
    105      -1.4660      0.00000
    106      -1.4597      0.00000
    107      -1.4568      0.00000
    108      -0.9910      0.00000
    109      -0.9885      0.00000
    110      -0.5428      0.00000
    111       0.4117      0.00000
    112       0.4218      0.00000
    113       0.4296      0.00000
    114       0.5620      0.00000
    115       0.8434      0.00000
    116       0.8447      0.00000
    117       1.2927      0.00000
    118       1.3403      0.00000
    119       1.6810      0.00000
    120       1.8016      0.00000
    121       1.8030      0.00000
    122       1.8046      0.00000
    123       1.8244      0.00000
    124       1.8274      0.00000
    125       2.0297      0.00000
    126       2.1748      0.00000
    127       2.1793      0.00000
    128       2.1812      0.00000
    129       2.3461      0.00000
    130       2.3493      0.00000
    131       2.6134      0.00000
    132       2.6413      0.00000

 k-point     2 :       0.3333    0.0000    0.0000
  band No.  band energies     occupation 
      1     -31.7394      2.00000
      2     -22.1878      2.00000
      3     -21.8688      2.00000
      4     -21.6614      2.00000
      5     -21.4542      2.00000
      6     -21.0351      2.00000
      7     -20.8971      2.00000
      8     -20.7270      2.00000
      9     -20.4193      2.00000
     10     -20.1639      2.00000
     11     -19.7897      2.00000
     12     -19.7001      2.00000
     13     -19.3238      2.00000
     14     -19.2425      2.00000
     15     -19.0599      2.00000
     16     -18.5916      2.00000
     17     -18.4579      2.00000
     18     -18.1207      2.00000
     19     -18.0614      2.00000
     20     -17.5895      2.00000
     21     -17.4984      2.00000
     22     -17.3021      2.00000
     23     -17.2756      2.00000
     24     -16.8500      2.00000
     25     -16.6609      2.00000
     26     -16.1746      2.00000
     27     -15.9802      2.00000
     28     -15.8476      2.00000
     29     -15.2986      2.00000
     30     -15.1701      2.00000
     31     -15.1315      2.00000
     32     -14.8834      2.00000
     33     -14.7812      2.00000
     34     -14.4758      2.00000
     35     -14.4586      2.00000
     36     -13.7671      2.00000
     37     -13.7570      2.00000
     38     -13.1958      2.00000
     39     -13.0871      2.00000
     40     -12.9381      2.00000
     41     -12.9048      2.00000
     42     -12.5851      2.00000
     43     -12.5521      2.00000
     44     -12.3898      2.00000
     45     -12.0218      2.00000
     46     -11.6614      2.00000
     47     -11.4462      2.00000
     48     -11.2947      2.00000
     49     -11.1220      2.00000
     50     -10.9090      2.00000
     51     -10.8500      2.00000
     52     -10.5873      2.00000
     53     -10.5346      2.00000
     54     -10.2844      2.00000
     55     -10.2360      2.00000
     56     -10.1608      2.00000
     57     -10.0483      2.00000
     58      -9.8528      2.00000
     59      -9.8220      2.00000
     60      -9.6550      2.00000
     61      -9.6081      2.00000
     62      -9.5607      2.00000
     63      -9.5277      2.00000
     64      -9.3721      2.00000
     65      -9.3404      2.00000
     66      -9.2580      2.00000
     67      -9.1761      2.00000
     68      -9.0967      2.00000
     69      -9.0817      2.00000
     70      -8.8647      2.00000
     71      -8.7116      2.00000
     72      -8.6644      2.00000
     73      -8.5051      2.00000
     74      -8.3998      2.00000
     75      -8.2836      2.00000
     76      -8.1322      2.00000
     77      -8.0934      2.00000
     78      -8.0635      2.00000
     79      -7.9712      2.00000
     80      -7.8089      2.00000
     81      -7.6228      2.00000
     82      -7.3636      2.00000
     83      -7.3399      2.00000
     84      -7.2663      2.00000
     85      -7.2007      2.00000
     86      -6.9190      2.00000
     87      -6.8720      2.00000
     88      -6.6885      2.00000
     89      -6.5901      2.00000
     90      -6.3510      2.00000
     91      -6.1824      2.00000
     92      -6.0709      2.00000
     93      -5.9229      2.00000
     94      -5.7392      2.00000
     95      -5.6407      2.00000
     96      -5.3192      2.00000
     97      -5.1172      2.00000
     98      -4.9710      2.00000
     99      -4.9195      2.00000
    100      -4.2689      2.00000
    101      -4.1703      2.00000
    102      -3.3343      2.00000
    103      -3.1370      1.99933
    104      -2.8049      0.00000
    105      -1.5910      0.00000
    106      -1.4241      0.00000
    107      -0.8384      0.00000
    108      -0.8190      0.00000
    109      -0.7109      0.00000
    110      -0.6692      0.00000
    111      -0.1272      0.00000
    112      -0.0039      0.00000
    113       0.2933      0.00000
    114       0.7045      0.00000
    115       0.7245      0.00000
    116       1.0996      0.00000
    117       1.1760      0.00000
    118       1.3672      0.00000
    119       1.4626      0.00000
    120       1.5375      0.00000
    121       1.5702      0.00000
    122       1.6365      0.00000
    123       1.8306      0.00000
    124       1.9119      0.00000
    125       2.0412      0.00000
    126       2.2233      0.00000
    127       2.2714      0.00000
    128       2.3287      0.00000
    129       2.3396      0.00000
    130       2.3954      0.00000
    131       2.4574      0.00000
    132       2.7970      0.00000

 k-point     3 :       0.0000    0.3333    0.0000
  band No.  band energies     occupation 
      1     -31.7394      2.00000
      2     -22.1882      2.00000
      3     -21.8679      2.00000
      4     -21.6598      2.00000
      5     -21.4565      2.00000
      6     -21.0337      2.00000
      7     -20.8990      2.00000
      8     -20.7280      2.00000
      9     -20.4187      2.00000
     10     -20.1628      2.00000
     11     -19.7868      2.00000
     12     -19.7003      2.00000
     13     -19.3246      2.00000
     14     -19.2439      2.00000
     15     -19.0597      2.00000
     16     -18.5926      2.00000
     17     -18.4582      2.00000
     18     -18.1227      2.00000
     19     -18.0615      2.00000
     20     -17.5885      2.00000
     21     -17.4991      2.00000
     22     -17.3005      2.00000
     23     -17.2756      2.00000
     24     -16.8489      2.00000
     25     -16.6571      2.00000
     26     -16.1786      2.00000
     27     -15.9777      2.00000
     28     -15.8467      2.00000
     29     -15.3016      2.00000
     30     -15.1697      2.00000
     31     -15.1333      2.00000
     32     -14.8874      2.00000
     33     -14.7801      2.00000
     34     -14.4774      2.00000
     35     -14.4550      2.00000
     36     -13.7670      2.00000
     37     -13.7568      2.00000
     38     -13.1969      2.00000
     39     -13.0854      2.00000
     40     -12.9372      2.00000
     41     -12.9043      2.00000
     42     -12.5836      2.00000
     43     -12.5495      2.00000
     44     -12.3913      2.00000
     45     -12.0203      2.00000
     46     -11.6635      2.00000
     47     -11.4487      2.00000
     48     -11.2957      2.00000
     49     -11.1229      2.00000
     50     -10.9088      2.00000
     51     -10.8506      2.00000
     52     -10.5852      2.00000
     53     -10.5342      2.00000
     54     -10.2854      2.00000
     55     -10.2363      2.00000
     56     -10.1620      2.00000
     57     -10.0484      2.00000
     58      -9.8524      2.00000
     59      -9.8197      2.00000
     60      -9.6558      2.00000
     61      -9.6066      2.00000
     62      -9.5603      2.00000
     63      -9.5276      2.00000
     64      -9.3708      2.00000
     65      -9.3413      2.00000
     66      -9.2594      2.00000
     67      -9.1756      2.00000
     68      -9.0964      2.00000
     69      -9.0804      2.00000
     70      -8.8639      2.00000
     71      -8.7114      2.00000
     72      -8.6654      2.00000
     73      -8.5055      2.00000
     74      -8.4052      2.00000
     75      -8.2881      2.00000
     76      -8.1322      2.00000
     77      -8.0926      2.00000
     78      -8.0659      2.00000
     79      -7.9676      2.00000
     80      -7.8081      2.00000
     81      -7.6205      2.00000
     82      -7.3606      2.00000
     83      -7.3387      2.00000
     84      -7.2649      2.00000
     85      -7.1966      2.00000
     86      -6.9191      2.00000
     87      -6.8738      2.00000
     88      -6.6928      2.00000
     89      -6.5897      2.00000
     90      -6.3481      2.00000
     91      -6.1859      2.00000
     92      -6.0726      2.00000
     93      -5.9224      2.00000
     94      -5.7408      2.00000
     95      -5.6403      2.00000
     96      -5.3195      2.00000
     97      -5.1166      2.00000
     98      -4.9700      2.00000
     99      -4.9199      2.00000
    100      -4.2694      2.00000
    101      -4.1669      2.00000
    102      -3.3391      2.00000
    103      -3.1361      1.99927
    104      -2.8016      0.00000
    105      -1.5951      0.00000
    106      -1.4238      0.00000
    107      -0.8387      0.00000
    108      -0.8186      0.00000
    109      -0.7096      0.00000
    110      -0.6677      0.00000
    111      -0.1292      0.00000
    112      -0.0029      0.00000
    113       0.2936      0.00000
    114       0.7044      0.00000
    115       0.7277      0.00000
    116       1.0985      0.00000
    117       1.1739      0.00000
    118       1.3684      0.00000
    119       1.4632      0.00000
    120       1.5380      0.00000
    121       1.5700      0.00000
    122       1.6360      0.00000
    123       1.8315      0.00000
    124       1.9135      0.00000
    125       2.0437      0.00000
    126       2.2271      0.00000
    127       2.2746      0.00000
    128       2.3359      0.00000
    129       2.4268      0.00000
    130       2.7392      0.00000
    131       3.2544      0.00000
    132       3.6128      0.00000

 k-point     4 :       0.3333    0.3333    0.0000
  band No.  band energies     occupation 
      1     -31.7394      2.00000
      2     -22.1878      2.00000
      3     -21.8691      2.00000
      4     -21.6613      2.00000
      5     -21.4524      2.00000
      6     -21.0347      2.00000
      7     -20.8992      2.00000
      8     -20.7294      2.00000
      9     -20.4202      2.00000
     10     -20.1609      2.00000
     11     -19.7854      2.00000
     12     -19.6996      2.00000
     13     -19.3239      2.00000
     14     -19.2427      2.00000
     15     -19.0653      2.00000
     16     -18.5931      2.00000
     17     -18.4549      2.00000
     18     -18.1214      2.00000
     19     -18.0634      2.00000
     20     -17.5881      2.00000
     21     -17.4990      2.00000
     22     -17.3004      2.00000
     23     -17.2771      2.00000
     24     -16.8475      2.00000
     25     -16.6584      2.00000
     26     -16.1758      2.00000
     27     -15.9778      2.00000
     28     -15.8490      2.00000
     29     -15.2971      2.00000
     30     -15.1709      2.00000
     31     -15.1368      2.00000
     32     -14.8849      2.00000
     33     -14.7825      2.00000
     34     -14.4781      2.00000
     35     -14.4562      2.00000
     36     -13.7618      2.00000
     37     -13.7600      2.00000
     38     -13.1963      2.00000
     39     -13.0891      2.00000
     40     -12.9336      2.00000
     41     -12.9022      2.00000
     42     -12.5851      2.00000
     43     -12.5466      2.00000
     44     -12.3894      2.00000
     45     -12.0281      2.00000
     46     -11.6618      2.00000
     47     -11.4477      2.00000
     48     -11.2952      2.00000
     49     -11.1214      2.00000
     50     -10.9140      2.00000
     51     -10.8534      2.00000
     52     -10.5830      2.00000
     53     -10.5332      2.00000
     54     -10.2844      2.00000
     55     -10.2360      2.00000
     56     -10.1634      2.00000
     57     -10.0472      2.00000
     58      -9.8532      2.00000
     59      -9.8187      2.00000
     60      -9.6516      2.00000
     61      -9.6093      2.00000
     62      -9.5560      2.00000
     63      -9.5289      2.00000
     64      -9.3716      2.00000
     65      -9.3373      2.00000
     66      -9.2554      2.00000
     67      -9.1780      2.00000
     68      -9.0991      2.00000
     69      -9.0821      2.00000
     70      -8.8651      2.00000
     71      -8.7133      2.00000
     72      -8.6645      2.00000
     73      -8.5053      2.00000
     74      -8.4099      2.00000
     75      -8.2861      2.00000
     76      -8.1353      2.00000
     77      -8.0933      2.00000
     78      -8.0709      2.00000
     79      -7.9714      2.00000
     80      -7.8071      2.00000
     81      -7.6095      2.00000
     82      -7.3574      2.00000
     83      -7.3371      2.00000
     84      -7.2640      2.00000
     85      -7.1969      2.00000
     86      -6.9170      2.00000
     87      -6.8731      2.00000
     88      -6.6956      2.00000
     89      -6.5937      2.00000
     90      -6.3454      2.00000
     91      -6.1873      2.00000
     92      -6.0748      2.00000
     93      -5.9202      2.00000
     94      -5.7396      2.00000
     95      -5.6421      2.00000
     96      -5.3210      2.00000
     97      -5.1155      2.00000
     98      -4.9702      2.00000
     99      -4.9227      2.00000
    100      -4.2649      2.00000
    101      -4.1686      2.00000
    102      -3.3352      2.00000
    103      -3.1382      1.99942
    104      -2.8038      0.00000
    105      -1.5911      0.00000
    106      -1.4296      0.00000
    107      -0.8389      0.00000
    108      -0.8191      0.00000
    109      -0.7053      0.00000
    110      -0.6683      0.00000
    111      -0.1264      0.00000
    112      -0.0059      0.00000
    113       0.2927      0.00000
    114       0.7047      0.00000
    115       0.7268      0.00000
    116       1.1019      0.00000
    117       1.1793      0.00000
    118       1.3662      0.00000
    119       1.4646      0.00000
    120       1.5606      0.00000
    121       1.5760      0.00000
    122       1.7494      0.00000
    123       1.8320      0.00000
    124       2.1789      0.00000
    125       2.3364      0.00000
    126       2.3972      0.00000
    127       2.6195      0.00000
    128       2.7884      0.00000
    129       2.8489      0.00000
    130       3.2033      0.00000
    131       3.5944      0.00000
    132       4.1829      0.00000

 k-point     5 :      -0.3333    0.3333    0.0000
  band No.  band energies     occupation 
      1     -31.7395      2.00000
      2     -22.0788      2.00000
      3     -22.0075      2.00000
      4     -21.8013      2.00000
      5     -21.1733      2.00000
      6     -21.1494      2.00000
      7     -20.8682      2.00000
      8     -20.4138      2.00000
      9     -20.3406      2.00000
     10     -20.1720      2.00000
     11     -20.1477      2.00000
     12     -20.1422      2.00000
     13     -19.5691      2.00000
     14     -18.8220      2.00000
     15     -18.6764      2.00000
     16     -18.3729      2.00000
     17     -18.3465      2.00000
     18     -18.3368      2.00000
     19     -17.9313      2.00000
     20     -17.7996      2.00000
     21     -17.6029      2.00000
     22     -17.2616      2.00000
     23     -17.1527      2.00000
     24     -17.1183      2.00000
     25     -16.5405      2.00000
     26     -16.4368      2.00000
     27     -16.2851      2.00000
     28     -15.8100      2.00000
     29     -15.6319      2.00000
     30     -15.1754      2.00000
     31     -14.9686      2.00000
     32     -14.6512      2.00000
     33     -13.9537      2.00000
     34     -13.9409      2.00000
     35     -13.9256      2.00000
     36     -13.8766      2.00000
     37     -13.8657      2.00000
     38     -13.7898      2.00000
     39     -13.6730      2.00000
     40     -13.4953      2.00000
     41     -13.0374      2.00000
     42     -12.4746      2.00000
     43     -12.2519      2.00000
     44     -12.0713      2.00000
     45     -11.8221      2.00000
     46     -11.7704      2.00000
     47     -11.5639      2.00000
     48     -11.5467      2.00000
     49     -11.5221      2.00000
     50     -10.9329      2.00000
     51     -10.8196      2.00000
     52     -10.5289      2.00000
     53     -10.2059      2.00000
     54     -10.2037      2.00000
     55     -10.1921      2.00000
     56     -10.0935      2.00000
     57     -10.0508      2.00000
     58     -10.0220      2.00000
     59      -9.9026      2.00000
     60      -9.7513      2.00000
     61      -9.7488      2.00000
     62      -9.5623      2.00000
     63      -9.4472      2.00000
     64      -9.4055      2.00000
     65      -9.1964      2.00000
     66      -9.0468      2.00000
     67      -9.0330      2.00000
     68      -8.9010      2.00000
     69      -8.8846      2.00000
     70      -8.6876      2.00000
     71      -8.6397      2.00000
     72      -8.6329      2.00000
     73      -8.6230      2.00000
     74      -8.5831      2.00000
     75      -8.3745      2.00000
     76      -8.2470      2.00000
     77      -8.1659      2.00000
     78      -8.0361      2.00000
     79      -7.9850      2.00000
     80      -7.8800      2.00000
     81      -7.8563      2.00000
     82      -7.8539      2.00000
     83      -7.2293      2.00000
     84      -7.1822      2.00000
     85      -7.1286      2.00000
     86      -6.8844      2.00000
     87      -6.7222      2.00000
     88      -6.6072      2.00000
     89      -6.4621      2.00000
     90      -6.2665      2.00000
     91      -6.1030      2.00000
     92      -5.9187      2.00000
     93      -5.9090      2.00000
     94      -5.8982      2.00000
     95      -5.4523      2.00000
     96      -5.4261      2.00000
     97      -5.1198      2.00000
     98      -5.0122      2.00000
     99      -4.9820      2.00000
    100      -4.9564      2.00000
    101      -3.7332      2.00000
    102      -3.4547      2.00000
    103      -3.2804      2.00000
    104      -2.3876      0.00000
    105      -2.2264      0.00000
    106      -0.9285      0.00000
    107      -0.8825      0.00000
    108      -0.8680      0.00000
    109      -0.5375      0.00000
    110      -0.2670      0.00000
    111      -0.2119      0.00000
    112       0.2557      0.00000
    113       0.2571      0.00000
    114       0.2628      0.00000
    115       0.5983      0.00000
    116       0.7913      0.00000
    117       0.9490      0.00000
    118       0.9732      0.00000
    119       1.0604      0.00000
    120       1.7337      0.00000
    121       1.7480      0.00000
    122       1.7668      0.00000
    123       1.8278      0.00000
    124       2.1190      0.00000
    125       2.1225      0.00000
    126       2.1273      0.00000
    127       2.2461      0.00000
    128       2.2477      0.00000
    129       2.3613      0.00000
    130       3.0006      0.00000
    131       3.0149      0.00000
    132       3.0333      0.00000


--------------------------------------------------------------------------------------------------------


 soft charge-density along one line, spin component           1
         0         1         2         3         4         5         6         7         8         9
 total charge-density along one line
 
 pseudopotential strength for first ion, spin component:           1
 10.222  13.593   0.000  -0.000   0.000  -0.000   0.000  -0.000
 13.593  18.076   0.000  -0.000   0.000  -0.000   0.000  -0.001
  0.000   0.000  -4.352  -0.000  -0.000   8.512   0.000   0.000
 -0.000  -0.000  -0.000  -4.344  -0.000   0.000   8.502   0.000
  0.000   0.000  -0.000  -0.000  -4.352   0.000   0.000   8.513
 -0.000  -0.000   8.512   0.000   0.000 -18.786  -0.000  -0.000
  0.000   0.000   0.000   8.502   0.000  -0.000 -18.776  -0.000
 -0.000  -0.001   0.000   0.000   8.513  -0.000  -0.000 -18.787
 total augmentation occupancy for first ion, spin component:           1
  8.358  -3.741   0.001   0.000   0.003   0.000   0.000   0.001
 -3.741   1.730  -0.002  -0.000  -0.003  -0.000   0.000  -0.000
  0.001  -0.002   1.840  -0.000  -0.001   0.174   0.000   0.000
  0.000  -0.000  -0.000   1.223  -0.000   0.000   0.078   0.000
  0.003  -0.003  -0.001  -0.000   1.839   0.000   0.000   0.174
  0.000  -0.000   0.174   0.000   0.000   0.018   0.000   0.000
  0.000   0.000   0.000   0.078   0.000   0.000   0.005   0.000
  0.001  -0.000   0.000   0.000   0.174   0.000   0.000   0.018


------------------------ aborting loop because EDIFF is reached ----------------------------------------


    CHARGE:  cpu time    0.4034: real time    0.4072
    FORLOC:  cpu time    0.0254: real time    0.0258
    FORNL :  cpu time    1.9451: real time    1.9629
    STRESS:  cpu time    3.2523: real time    3.2826
    FORCOR:  cpu time    0.1198: real time    0.1207
    FORHAR:  cpu time    0.0480: real time    0.0486
    MIXING:  cpu time    0.0035: real time    0.0035
    OFIELD:  cpu time    0.0001: real time    0.0001

  FORCE on cell =-STRESS in cart. coord.  units (eV):
  Direction    XX          YY          ZZ          XY          YZ          ZX
  --------------------------------------------------------------------------------------
  Alpha Z    82.54348    82.54348    82.54348
  Ewald   41234.49394 41234.68883-47952.36575    -2.01085     0.14688     0.13743
  Hartree 40516.63612 40516.81384-39998.44875    -0.17910     0.10285     0.09990
  E(xc)    -777.15622  -777.15650  -804.23613    -0.00710     0.00011     0.00006
  Local  -83988.78100-83989.14333 85337.14095     1.76882    -0.23485    -0.24223
  n-local  -203.93521  -203.93008  -194.68497    -0.01620     0.00702    -0.00142
  augment   -12.37959   -12.38002   -14.04718     0.00204    -0.00118     0.00008
  Kinetic  3164.16152  3164.09242  3596.26470     0.32491    -0.05111     0.01349
  Fock        0.00000     0.00000     0.00000     0.00000     0.00000     0.00000
  -------------------------------------------------------------------------------------
  Total      15.58305    15.52865    52.16636    -0.11747    -0.03027     0.00732
  in kB       9.52779     9.49453    31.89556    -0.07182    -0.01851     0.00447
  external pressure =       16.97 kB  Pullay stress =        0.00 kB


 VOLUME and BASIS-vectors are now :
 -----------------------------------------------------------------------------
  energy-cutoff  :      400.00
  volume of cell :     2620.42
      direct lattice vectors                 reciprocal lattice vectors
    12.300000191  0.000000000  0.000000000     0.081300812 -0.046939053  0.000000000
     6.150000804 10.652112223  0.000000000     0.000000000  0.093878095  0.000000000
     0.000000000  0.000000000 20.000000000     0.000000000  0.000000000  0.050000000

  length of vectors
    12.300000191 12.300000191 20.000000000     0.093878095  0.093878095  0.050000000


 FORCES acting on ions
    electron-ion (+dipol)            ewald-force                    non-local-force                 convergence-correction
 -----------------------------------------------------------------------------------------------
   -.151E+01 -.871E+00 0.279E+01   0.137E+01 0.791E+00 -.278E+01   0.823E-01 0.483E-01 -.197E-03   -.619E-03 0.985E-03 0.694E-03
   0.145E+01 -.918E+00 0.279E+01   -.133E+01 0.843E+00 -.278E+01   -.902E-01 0.436E-01 -.319E-03   0.200E-02 0.106E-03 -.349E-04
   0.380E+01 0.642E+01 0.381E+01   -.384E+01 -.649E+01 -.377E+01   -.104E+00 0.774E-01 -.699E-01   0.113E-02 0.273E-02 0.104E-03
   -.202E-01 0.129E+02 0.480E+01   0.191E-01 -.132E+02 -.494E+01   -.371E-02 0.184E-01 0.111E+00   -.142E-02 0.483E-02 -.197E-04
   -.372E+01 0.643E+01 0.381E+01   0.377E+01 -.650E+01 -.377E+01   0.112E+00 0.785E-01 -.719E-01   -.195E-02 0.357E-02 0.448E-03
   -.960E-01 0.168E+01 0.279E+01   0.909E-01 -.153E+01 -.278E+01   0.323E-02 -.968E-01 -.560E-03   0.398E-03 -.733E-03 0.357E-03
   0.108E+02 0.578E+01 0.489E+01   -.103E+02 -.551E+01 -.494E+01   0.155E+00 0.391E-01 0.523E-01   0.889E-03 -.157E-02 -.150E-03
   0.200E+02 0.372E+02 0.186E+02   -.204E+02 -.382E+02 -.190E+02   0.689E+00 0.674E+00 0.549E+00   0.172E-02 0.421E-02 0.909E-03
   -.210E+02 0.363E+02 0.186E+02   0.215E+02 -.371E+02 -.190E+02   -.637E+00 0.654E+00 0.547E+00   -.488E-02 0.396E-02 0.147E-03
   -.117E+02 0.673E+01 0.489E+01   0.114E+02 -.655E+01 -.494E+01   -.108E+00 0.628E-01 0.525E-01   -.266E-02 0.759E-03 -.734E-04
   0.728E+01 0.130E+00 0.381E+01   -.736E+01 -.130E+00 -.377E+01   0.796E-02 -.132E+00 -.724E-01   0.230E-02 0.391E-03 0.337E-03
   0.426E+02 -.269E-01 0.186E+02   -.436E+02 -.861E-02 -.190E+02   0.968E+00 0.224E+00 0.548E+00   0.599E-02 0.176E-02 -.492E-03
   -.137E+00 -.108E+00 0.291E+03   0.133E+00 0.131E+00 -.346E+03   0.106E-02 -.120E-02 0.712E+01   -.196E-02 -.267E-02 0.740E-02
   -.419E+02 -.504E-01 0.186E+02   0.429E+02 0.112E-01 -.190E+02   -.886E+00 0.225E+00 0.546E+00   -.486E-02 -.892E-03 -.620E-03
   -.745E+01 0.401E-02 0.381E+01   0.753E+01 -.113E-01 -.377E+01   -.108E-01 -.138E+00 -.711E-01   -.195E-02 0.670E-03 0.529E-03
   0.112E+02 -.638E+01 0.480E+01   -.114E+02 0.650E+01 -.494E+01   0.131E-01 -.154E-01 0.112E+00   0.367E-02 -.205E-02 -.510E-03
   0.210E+02 -.363E+02 0.186E+02   -.214E+02 0.371E+02 -.190E+02   0.250E+00 -.869E+00 0.546E+00   0.122E-02 -.445E-02 -.248E-04
   -.210E+02 -.362E+02 0.186E+02   0.214E+02 0.371E+02 -.190E+02   -.247E+00 -.881E+00 0.546E+00   -.217E-02 -.681E-03 0.887E-04
   -.112E+02 -.643E+01 0.480E+01   0.114E+02 0.655E+01 -.494E+01   -.108E-01 -.628E-02 0.112E+00   -.380E-02 -.980E-03 -.128E-03
   -.160E-01 -.145E+01 0.282E+01   0.152E-01 0.153E+01 -.278E+01   -.761E-03 -.849E-01 -.149E-01   0.488E-03 -.209E-02 0.583E-03
   0.371E+01 -.641E+01 0.381E+01   -.374E+01 0.649E+01 -.377E+01   0.124E+00 0.609E-01 -.716E-01   0.146E-02 -.326E-02 0.481E-03
   -.457E-02 -.135E+02 0.489E+01   0.408E-02 0.131E+02 -.494E+01   0.494E-03 -.124E+00 0.524E-01   0.640E-03 -.330E-02 0.652E-04
   -.371E+01 -.643E+01 0.381E+01   0.374E+01 0.650E+01 -.377E+01   -.124E+00 0.604E-01 -.716E-01   -.182E-02 -.107E-02 -.119E-04
   -.128E+01 0.756E+00 0.282E+01   0.134E+01 -.793E+00 -.278E+01   -.751E-01 0.431E-01 -.149E-01   -.123E-02 0.231E-02 0.441E-03
   0.128E+01 0.760E+00 0.282E+01   -.134E+01 -.798E+00 -.278E+01   0.737E-01 0.422E-01 -.151E-01   0.133E-02 0.122E-02 0.693E-03
   -.383E-01 -.380E-01 0.250E+01   0.450E-01 0.379E-01 -.250E+01   -.700E-04 0.139E-02 -.103E-01   0.107E-02 0.249E-04 0.271E-03
   0.533E+01 0.391E+01 0.341E+01   -.517E+01 -.409E+01 -.338E+01   -.709E-01 -.179E-02 -.242E-01   0.117E-02 0.126E-02 -.182E-03
   0.610E+01 0.173E+02 0.687E+01   -.585E+01 -.173E+02 -.650E+01   -.678E-01 0.168E+00 -.118E+00   0.138E-02 0.220E-02 0.276E-03
   -.611E+01 0.172E+02 0.688E+01   0.586E+01 -.171E+02 -.650E+01   0.651E-01 0.162E+00 -.124E+00   -.189E-02 0.445E-02 0.284E-03
   -.533E+01 0.407E+01 0.341E+01   0.517E+01 -.429E+01 -.338E+01   0.712E-01 0.339E-02 -.240E-01   -.160E-02 0.230E-02 0.454E-03
   0.589E+01 0.256E+01 0.341E+01   -.597E+01 -.230E+01 -.338E+01   -.738E-02 -.685E-01 -.244E-01   0.318E-02 -.807E-04 0.226E-03
   0.307E+02 0.165E+02 0.127E+02   -.314E+02 -.166E+02 -.132E+02   -.441E+00 -.930E-01 0.149E+00   0.700E-02 -.153E-03 0.472E-04
   -.293E+00 0.878E+02 0.586E+02   0.319E+00 -.922E+02 -.663E+02   0.279E-01 -.623E+00 0.334E+01   0.194E-02 0.479E-02 0.112E-02
   -.283E+02 0.163E+02 0.126E+02   0.286E+02 -.165E+02 -.131E+02   0.160E+00 -.920E-01 0.147E+00   -.443E-02 0.124E-02 -.970E-04
   -.623E+01 0.256E+01 0.341E+01   0.634E+01 -.230E+01 -.338E+01   0.344E-01 -.641E-01 -.239E-01   -.285E-02 0.128E-03 0.469E-03
   0.179E+02 -.312E+01 0.688E+01   -.177E+02 0.329E+01 -.650E+01   0.125E+00 -.161E+00 -.120E+00   0.288E-02 -.547E-03 -.305E-03
   0.760E+02 -.441E+02 0.586E+02   -.799E+02 0.463E+02 -.663E+02   -.539E+00 0.349E+00 0.329E+01   0.499E-02 -.190E-02 0.261E-02
   -.761E+02 -.439E+02 0.586E+02   0.799E+02 0.461E+02 -.663E+02   0.559E+00 0.321E+00 0.330E+01   -.392E-02 -.563E-02 0.379E-03
   -.179E+02 -.331E+01 0.688E+01   0.177E+02 0.349E+01 -.650E+01   -.106E+00 -.137E+00 -.121E+00   -.253E-02 -.101E-02 -.747E-04
   -.393E-01 -.571E+00 0.293E+01   0.450E-01 0.807E+00 -.290E+01   -.942E-03 -.153E+00 -.522E-01   0.395E-03 -.197E-02 0.322E-03
   0.118E+02 -.138E+02 0.688E+01   -.119E+02 0.136E+02 -.650E+01   0.169E+00 -.220E-01 -.121E+00   0.401E-02 -.294E-02 0.264E-03
   -.482E-02 -.327E+02 0.126E+02   0.209E-02 0.330E+02 -.131E+02   0.402E-02 0.186E+00 0.145E+00   -.113E-02 -.294E-02 -.193E-03
   -.118E+02 -.138E+02 0.688E+01   0.119E+02 0.136E+02 -.650E+01   -.171E+00 -.233E-01 -.121E+00   -.198E-02 -.134E-02 0.775E-04
   -.385E+01 -.221E+01 0.282E+01   0.379E+01 0.217E+01 -.286E+01   -.195E-01 -.111E-01 0.130E-01   -.287E-02 -.113E-02 0.564E-03
   0.384E+01 -.219E+01 0.283E+01   -.378E+01 0.216E+01 -.286E+01   0.210E-01 -.130E-01 0.125E-01   0.290E-02 -.208E-02 0.238E-03
   0.863E+00 -.664E+01 0.341E+01   -.114E+01 0.661E+01 -.338E+01   0.388E-01 0.608E-01 -.238E-01   0.134E-02 -.369E-02 0.444E-03
   -.876E+00 -.666E+01 0.341E+01   0.115E+01 0.663E+01 -.338E+01   -.385E-01 0.585E-01 -.238E-01   -.211E-04 -.222E-02 0.432E-04
   -.503E+00 0.301E+00 0.294E+01   0.711E+00 -.422E+00 -.290E+01   -.132E+00 0.775E-01 -.526E-01   -.172E-02 0.153E-02 0.792E-04
   0.870E-04 0.446E+01 0.282E+01   0.209E-02 -.440E+01 -.286E+01   -.347E-03 0.238E-01 0.128E-01   -.135E-02 0.423E-02 0.352E-03
   0.519E+00 0.315E+00 0.293E+01   -.723E+00 -.434E+00 -.290E+01   0.133E+00 0.784E-01 -.517E-01   0.126E-02 0.259E-03 0.524E-03
   -.131E+00 -.840E-01 -.723E+03   0.138E+00 0.147E+00 0.846E+03   0.701E-02 -.911E-01 -.638E+02   -.640E-02 -.221E-02 -.181E-01
 -----------------------------------------------------------------------------------------------
   0.335E-02 0.643E-01 0.440E+02   0.711E-13 -.785E-14 -.455E-12   0.330E-02 -.605E-01 -.440E+02   -.527E-02 -.365E-02 0.129E-02
 
 
 POSITION                                       TOTAL-FORCE (eV/Angst)
 -----------------------------------------------------------------------------------
      0.00000      0.00000      8.35995        -0.053512     -0.030398      0.009421
      2.46000      0.00000      8.35995         0.036634     -0.031799      0.009343
      4.92000      0.00000      8.35995        -0.140152      0.015928     -0.025594
      7.38000      0.00000      8.35995        -0.006204     -0.204974     -0.026866
      9.84000      0.00000      8.35995         0.157317      0.012918     -0.026616
      1.23000      2.13042      8.35995        -0.001561      0.047125      0.009153
      3.69000      2.13042      8.35995         0.642134      0.306636      0.000282
      6.15000      2.13042      8.35995         0.307083     -0.280761      0.166743
      8.61000      2.13042      8.35995        -0.092991     -0.199473      0.166786
     11.07000      2.13042      8.35995        -0.428606      0.249514      0.000126
      2.46000      4.26084      8.35995        -0.069204     -0.131723     -0.025988
      4.92000      4.26084      8.35995        -0.027291      0.189968      0.164259
      7.38000      4.26084      8.35995        -0.005040      0.019100    -48.169775
      9.84000      4.26084      8.35995         0.128460      0.185379      0.165330
     12.30000      4.26084      8.35995         0.064100     -0.144338     -0.026029
      3.69000      6.39127      8.35995        -0.174591      0.101726     -0.026705
      6.15000      6.39127      8.35995        -0.221306      0.018900      0.164502
      8.61000      6.39127      8.35995         0.225068      0.018131      0.164661
     11.07000      6.39127      8.35995         0.180119      0.104450     -0.026972
     13.53000      6.39127      8.35995        -0.001147     -0.011320      0.017836
      4.92000      8.52169      8.35995         0.090404      0.130210     -0.025974
      7.38000      8.52169      8.35995         0.000617     -0.496684     -0.000020
      9.84000      8.52169      8.35995        -0.091886      0.128931     -0.026059
     12.30000      8.52169      8.35995        -0.012841      0.008490      0.017823
     14.76000      8.52169      8.35995         0.010375      0.005609      0.017722
      1.23000      0.71014      8.36012         0.007635      0.001368     -0.006050
      3.69000      0.71014      8.36012         0.090726     -0.179095      0.009972
      6.15000      0.71014      8.36012         0.185079      0.216311      0.255604
      8.61000      0.71014      8.36012        -0.192068      0.250945      0.257310
     11.07000      0.71014      8.36012        -0.093970     -0.219001      0.010129
      2.46000      2.84056      8.36012        -0.092448      0.189398      0.010331
      4.93000      2.84056      8.36012        -1.063581     -0.252005     -0.356749
      7.38000      2.84056      8.36012         0.055435     -5.061387     -4.333596
      9.84000      2.84056      8.36012         0.443319     -0.256496     -0.355998
     12.30000      2.84056      8.36012         0.140006      0.192317      0.010044
      3.69000      4.97099      8.36012         0.306870      0.012367      0.257209
      6.15000      4.97099      8.36012        -4.407363      2.568501     -4.357670
      8.61000      4.97099      8.36012         4.399363      2.536670     -4.351969
     11.07000      4.97099      8.36012        -0.311551      0.042144      0.257085
     13.53000      4.97099      8.36012         0.005115      0.080572     -0.022324
      4.92000      7.10141      8.36012         0.120022     -0.292325      0.256970
      7.38000      7.10141      8.36012         0.000127      0.512075     -0.354571
      9.84000      7.10141      8.36012        -0.118890     -0.291844      0.257335
     12.30000      7.10141      8.36012        -0.081483     -0.049259     -0.026525
     14.76000      7.10141      8.36012         0.081115     -0.047448     -0.026234
      6.15000      9.23183      8.36012        -0.237413      0.027214      0.010061
      8.61000      9.23183      8.36012         0.236379      0.026439      0.010100
     11.07000      9.23183      8.36012         0.073822     -0.042364     -0.021735
     13.53000      9.23183      8.36012         0.000458      0.094098     -0.026445
     15.99000      9.23183      8.36012        -0.070283     -0.040269     -0.022107
      7.38000      4.26084      9.36012         0.007601     -0.030473     59.992436
 -----------------------------------------------------------------------------------
    total drift:                                0.001369      0.000117     -0.000338


--------------------------------------------------------------------------------------------------------



  FREE ENERGIE OF THE ION-ELECTRON SYSTEM (eV)
  ---------------------------------------------------
  free  energy   TOTEN  =      -454.33302202 eV

  energy  without entropy=     -454.33291559  energy(sigma->0) =     -454.33296881
 


--------------------------------------------------------------------------------------------------------


    POTLOK:  cpu time    0.1759: real time    0.1774


--------------------------------------------------------------------------------------------------------


 stress matrix after NEB project (eV)
     15.58305     -0.11747      0.00732
     -0.11747     15.52865     -0.03027
      0.00732     -0.03027     52.16636
  FORCES: max atom, RMS    59.992444   10.899587
  FORCE total and by dimension   77.838618   59.992436
  Stress total and by dimension   56.615623   52.166357
     LOOP+:  cpu time   42.1642: real time   42.3515
    4ORBIT:  cpu time    0.0000: real time    0.0000

 total amount of memory used by VASP MPI-rank0    90113. kBytes
=======================================================================

   base      :      30000. kBytes
   nonl-proj :       8674. kBytes
   fftplans  :      26248. kBytes
   grid      :      14579. kBytes
   one-center:         21. kBytes
   wavefun   :      10591. kBytes
 
  
  
 General timing and accounting informations for this job:
 ========================================================
  
                  Total CPU time used (sec):       49.754
                            User time (sec):       46.572
                          System time (sec):        3.182
                         Elapsed time (sec):       49.999
  
                   Maximum memory used (kb):      366624.
                   Average memory used (kb):           0.
  
                          Minor page faults:       106180
                          Major page faults:            0
                 Voluntary context switches:         1301
