  51  51   0   0
  0.5138078E+02  0.1230000E-08  0.1230000E-08  0.2000000E-08  0.5000000E-15
  1.000000000000000E-004
  CAR 
                                         
      5.98696454    -33.53599894  301     -3.01696692      1.00000000
    -33.536  0.0000E+00  0.0000E+00
    -33.404  0.0000E+00  0.0000E+00
    -33.273  0.0000E+00  0.0000E+00
    -33.141  0.0000E+00  0.0000E+00
    -33.009  0.0000E+00  0.0000E+00
    -32.877  0.0000E+00  0.0000E+00
    -32.746  0.0000E+00  0.0000E+00
    -32.614  0.0000E+00  0.0000E+00
    -32.482  0.0000E+00  0.0000E+00
    -32.350  0.0000E+00  0.0000E+00
    -32.219  0.0000E+00  0.0000E+00
    -32.087  0.0000E+00  0.0000E+00
    -31.955  0.8110E-08  0.1068E-08
    -31.823  0.1341E+00  0.1766E-01
    -31.692  0.1371E+02  0.1824E+01
    -31.560  0.1335E+01  0.2000E+01
    -31.428  0.2866E-05  0.2000E+01
    -31.296  0.0000E+00  0.2000E+01
    -31.165  0.0000E+00  0.2000E+01
    -31.033  0.0000E+00  0.2000E+01
    -30.901  0.0000E+00  0.2000E+01
    -30.769  0.0000E+00  0.2000E+01
    -30.638  0.0000E+00  0.2000E+01
    -30.506  0.0000E+00  0.2000E+01
    -30.374  0.0000E+00  0.2000E+01
    -30.242  0.0000E+00  0.2000E+01
    -30.111  0.0000E+00  0.2000E+01
    -29.979  0.0000E+00  0.2000E+01
    -29.847  0.0000E+00  0.2000E+01
    -29.715  0.0000E+00  0.2000E+01
    -29.584  0.0000E+00  0.2000E+01
    -29.452  0.0000E+00  0.2000E+01
    -29.320  0.0000E+00  0.2000E+01
    -29.188  0.0000E+00  0.2000E+01
    -29.057  0.0000E+00  0.2000E+01
    -28.925  0.0000E+00  0.2000E+01
    -28.793  0.0000E+00  0.2000E+01
    -28.662  0.0000E+00  0.2000E+01
    -28.530  0.0000E+00  0.2000E+01
    -28.398  0.0000E+00  0.2000E+01
    -28.266  0.0000E+00  0.2000E+01
    -28.135  0.0000E+00  0.2000E+01
    -28.003  0.0000E+00  0.2000E+01
    -27.871  0.0000E+00  0.2000E+01
    -27.739  0.0000E+00  0.2000E+01
    -27.608  0.0000E+00  0.2000E+01
    -27.476  0.0000E+00  0.2000E+01
    -27.344  0.0000E+00  0.2000E+01
    -27.212  0.0000E+00  0.2000E+01
    -27.081  0.0000E+00  0.2000E+01
    -26.949  0.0000E+00  0.2000E+01
    -26.817  0.0000E+00  0.2000E+01
    -26.685  0.0000E+00  0.2000E+01
    -26.554  0.0000E+00  0.2000E+01
    -26.422  0.0000E+00  0.2000E+01
    -26.290  0.0000E+00  0.2000E+01
    -26.158  0.0000E+00  0.2000E+01
    -26.027  0.0000E+00  0.2000E+01
    -25.895  0.0000E+00  0.2000E+01
    -25.763  0.0000E+00  0.2000E+01
    -25.631  0.0000E+00  0.2000E+01
    -25.500  0.0000E+00  0.2000E+01
    -25.368  0.0000E+00  0.2000E+01
    -25.236  0.0000E+00  0.2000E+01
    -25.104  0.0000E+00  0.2000E+01
    -24.973  0.0000E+00  0.2000E+01
    -24.841  0.0000E+00  0.2000E+01
    -24.709  0.0000E+00  0.2000E+01
    -24.577  0.0000E+00  0.2000E+01
    -24.446  0.0000E+00  0.2000E+01
    -24.314  0.0000E+00  0.2000E+01
    -24.182  0.0000E+00  0.2000E+01
    -24.050  0.0000E+00  0.2000E+01
    -23.919  0.0000E+00  0.2000E+01
    -23.787  0.0000E+00  0.2000E+01
    -23.655  0.0000E+00  0.2000E+01
    -23.524  0.0000E+00  0.2000E+01
    -23.392  0.0000E+00  0.2000E+01
    -23.260  0.0000E+00  0.2000E+01
    -23.128  0.0000E+00  0.2000E+01
    -22.997  0.0000E+00  0.2000E+01
    -22.865  0.0000E+00  0.2000E+01
    -22.733  0.0000E+00  0.2000E+01
    -22.601  0.0000E+00  0.2000E+01
    -22.470  0.1614E-07  0.2000E+01
    -22.338  0.4930E-01  0.2006E+01
    -22.206  0.4746E+01  0.2632E+01
    -22.074  0.9017E+01  0.3820E+01
    -21.943  0.4821E+01  0.4455E+01
    -21.811  0.1087E+02  0.5887E+01
    -21.679  0.5628E+01  0.6628E+01
    -21.547  0.7422E+01  0.7606E+01
    -21.416  0.1308E+02  0.9329E+01
    -21.284  0.5091E+01  0.1000E+02
    -21.152  0.4023E+01  0.1053E+02
    -21.020  0.9357E+01  0.1176E+02
    -20.889  0.1098E+02  0.1321E+02
    -20.757  0.9716E+01  0.1449E+02
    -20.625  0.8073E+01  0.1555E+02
    -20.493  0.2480E+00  0.1559E+02
    -20.362  0.1338E+02  0.1735E+02
    -20.230  0.3766E+01  0.1784E+02
    -20.098  0.1873E+02  0.2031E+02
    -19.966  0.1026E+01  0.2045E+02
    -19.835  0.3837E+01  0.2095E+02
    -19.703  0.1414E+02  0.2282E+02
    -19.571  0.8325E+01  0.2391E+02
    -19.439  0.5726E+01  0.2467E+02
    -19.308  0.7411E+01  0.2564E+02
    -19.176  0.1366E+02  0.2744E+02
    -19.044  0.7806E+01  0.2847E+02
    -18.913  0.4445E+01  0.2906E+02
    -18.781  0.5139E+01  0.2973E+02
    -18.649  0.5658E+01  0.3048E+02
    -18.517  0.1353E+02  0.3226E+02
    -18.386  0.1159E+02  0.3379E+02
    -18.254  0.8310E+01  0.3488E+02
    -18.122  0.5475E+01  0.3560E+02
    -17.990  0.1476E+02  0.3755E+02
    -17.859  0.4821E+01  0.3818E+02
    -17.727  0.3611E+01  0.3866E+02
    -17.595  0.6575E+01  0.3953E+02
    -17.463  0.1541E+02  0.4156E+02
    -17.332  0.4293E+01  0.4212E+02
    -17.200  0.2105E+02  0.4489E+02
    -17.068  0.6755E+01  0.4578E+02
    -16.936  0.3378E+01  0.4623E+02
    -16.805  0.9117E+01  0.4743E+02
    -16.673  0.4380E+01  0.4801E+02
    -16.541  0.8536E+01  0.4913E+02
    -16.409  0.8911E+01  0.5031E+02
    -16.278  0.3003E+01  0.5070E+02
    -16.146  0.9545E+01  0.5196E+02
    -16.014  0.5983E+01  0.5275E+02
    -15.882  0.1285E+02  0.5444E+02
    -15.751  0.1163E+02  0.5597E+02
    -15.619  0.2259E+01  0.5627E+02
    -15.487  0.4332E+01  0.5684E+02
    -15.355  0.2579E+01  0.5718E+02
    -15.224  0.1039E+02  0.5855E+02
    -15.092  0.2225E+02  0.6148E+02
    -14.960  0.4441E+01  0.6207E+02
    -14.828  0.1167E+02  0.6360E+02
    -14.697  0.1012E+02  0.6494E+02
    -14.565  0.6322E+01  0.6577E+02
    -14.433  0.1661E+02  0.6796E+02
    -14.301  0.3697E+01  0.6844E+02
    -14.170  0.1335E+01  0.6862E+02
    -14.038  0.3809E+01  0.6912E+02
    -13.906  0.1079E+02  0.7054E+02
    -13.775  0.1760E+02  0.7286E+02
    -13.643  0.1644E+02  0.7503E+02
    -13.511  0.1721E+01  0.7525E+02
    -13.379  0.2284E+01  0.7556E+02
    -13.248  0.7290E+00  0.7565E+02
    -13.116  0.1160E+02  0.7718E+02
    -12.984  0.1390E+02  0.7901E+02
    -12.852  0.2017E+02  0.8167E+02
    -12.721  0.8248E+00  0.8178E+02
    -12.589  0.5986E+01  0.8257E+02
    -12.457  0.1682E+02  0.8478E+02
    -12.325  0.1066E+02  0.8619E+02
    -12.194  0.3497E+01  0.8665E+02
    -12.062  0.3818E+01  0.8715E+02
    -11.930  0.1146E+02  0.8866E+02
    -11.798  0.4233E+01  0.8922E+02
    -11.667  0.1693E+02  0.9145E+02
    -11.535  0.1696E+02  0.9368E+02
    -11.403  0.1315E+02  0.9541E+02
    -11.271  0.8726E+01  0.9656E+02
    -11.140  0.5545E+01  0.9729E+02
    -11.008  0.7117E+01  0.9823E+02
    -10.876  0.1428E+02  0.1001E+03
    -10.744  0.1574E+02  0.1022E+03
    -10.613  0.2523E+01  0.1025E+03
    -10.481  0.2043E+02  0.1052E+03
    -10.349  0.3679E+01  0.1057E+03
    -10.217  0.2633E+02  0.1092E+03
    -10.086  0.2457E+02  0.1124E+03
     -9.954  0.1732E+02  0.1147E+03
     -9.822  0.1638E+02  0.1168E+03
     -9.690  0.1658E+02  0.1190E+03
     -9.559  0.2900E+02  0.1228E+03
     -9.427  0.1928E+02  0.1254E+03
     -9.295  0.2837E+02  0.1291E+03
     -9.164  0.2303E+02  0.1322E+03
     -9.032  0.2887E+02  0.1360E+03
     -8.900  0.2061E+02  0.1387E+03
     -8.768  0.1570E+02  0.1407E+03
     -8.637  0.2517E+02  0.1441E+03
     -8.505  0.1637E+02  0.1462E+03
     -8.373  0.1655E+02  0.1484E+03
     -8.241  0.1503E+02  0.1504E+03
     -8.110  0.1738E+02  0.1527E+03
     -7.978  0.2791E+02  0.1563E+03
     -7.846  0.1619E+02  0.1585E+03
     -7.714  0.1490E+02  0.1604E+03
     -7.583  0.8654E+01  0.1616E+03
     -7.451  0.1555E+01  0.1618E+03
     -7.319  0.2047E+02  0.1645E+03
     -7.187  0.3153E+02  0.1686E+03
     -7.056  0.1365E+02  0.1704E+03
     -6.924  0.5865E+01  0.1712E+03
     -6.792  0.1800E+02  0.1736E+03
     -6.660  0.1364E+02  0.1754E+03
     -6.529  0.1544E+02  0.1774E+03
     -6.397  0.6923E+01  0.1783E+03
     -6.265  0.1304E+02  0.1800E+03
     -6.133  0.1523E+02  0.1820E+03
     -6.002  0.1313E+02  0.1838E+03
     -5.870  0.2120E+02  0.1866E+03
     -5.738  0.7580E+01  0.1876E+03
     -5.606  0.1336E+02  0.1893E+03
     -5.475  0.2866E+01  0.1897E+03
     -5.343  0.8400E+01  0.1908E+03
     -5.211  0.7918E+01  0.1919E+03
     -5.079  0.1271E+02  0.1935E+03
     -4.948  0.1983E+02  0.1961E+03
     -4.816  0.1262E+02  0.1978E+03
     -4.684  0.3114E+01  0.1982E+03
     -4.552  0.4272E-01  0.1982E+03
     -4.421  0.1371E-03  0.1982E+03
     -4.289  0.4349E+01  0.1988E+03
     -4.157  0.1715E+02  0.2011E+03
     -4.026  0.3807E+01  0.2016E+03
     -3.894  0.2731E-03  0.2016E+03
     -3.762  0.6748E+00  0.2016E+03
     -3.630  0.2692E+01  0.2020E+03
     -3.499  0.4343E+00  0.2021E+03
     -3.367  0.4914E+01  0.2027E+03
     -3.235  0.1212E+02  0.2043E+03
     -3.103  0.1114E+02  0.2058E+03
     -2.972  0.1853E+01  0.2060E+03
     -2.840  0.3115E+01  0.2064E+03
     -2.708  0.8560E+01  0.2076E+03
     -2.576  0.3466E-01  0.2076E+03
     -2.445  0.1749E+00  0.2076E+03
     -2.313  0.3158E+01  0.2080E+03
     -2.181  0.3033E+01  0.2084E+03
     -2.049  0.3803E+00  0.2084E+03
     -1.918  0.1329E-05  0.2084E+03
     -1.786  0.1836E-06  0.2084E+03
     -1.654  0.3784E+00  0.2085E+03
     -1.522  0.9685E+01  0.2098E+03
     -1.391  0.1331E+02  0.2115E+03
     -1.259  0.1925E+01  0.2118E+03
     -1.127  0.2172E-03  0.2118E+03
     -0.995  0.1625E+01  0.2120E+03
     -0.864  0.1279E+02  0.2137E+03
     -0.732  0.2193E+02  0.2166E+03
     -0.600  0.1755E+02  0.2189E+03
     -0.468  0.5024E+01  0.2195E+03
     -0.337  0.1774E+00  0.2196E+03
     -0.205  0.5213E+01  0.2203E+03
     -0.073  0.1128E+02  0.2217E+03
      0.059  0.1008E+02  0.2231E+03
      0.190  0.6711E+00  0.2232E+03
      0.322  0.1750E+02  0.2255E+03
      0.454  0.6610E+01  0.2263E+03
      0.585  0.3306E+01  0.2268E+03
      0.717  0.1311E+02  0.2285E+03
      0.849  0.1483E+02  0.2304E+03
      0.981  0.6456E+01  0.2313E+03
      1.112  0.1189E+02  0.2329E+03
      1.244  0.1360E+02  0.2347E+03
      1.376  0.9504E+01  0.2359E+03
      1.508  0.1500E+02  0.2379E+03
      1.639  0.2284E+02  0.2409E+03
      1.771  0.1661E+02  0.2431E+03
      1.903  0.2620E+02  0.2465E+03
      2.035  0.8423E+01  0.2476E+03
      2.166  0.1701E+02  0.2499E+03
      2.298  0.2714E+02  0.2535E+03
      2.430  0.3229E+02  0.2577E+03
      2.562  0.7542E+01  0.2587E+03
      2.693  0.6287E+01  0.2595E+03
      2.825  0.9416E+01  0.2608E+03
      2.957  0.4864E+01  0.2614E+03
      3.089  0.9201E+01  0.2626E+03
      3.220  0.2587E+01  0.2630E+03
      3.352  0.1093E+01  0.2631E+03
      3.484  0.2975E-02  0.2631E+03
      3.616  0.2439E+01  0.2634E+03
      3.747  0.9319E+00  0.2636E+03
      3.879  0.2628E-04  0.2636E+03
      4.011  0.6324E-06  0.2636E+03
      4.143  0.2959E+00  0.2636E+03
      4.274  0.3048E+01  0.2640E+03
      4.406  0.2990E-01  0.2640E+03
      4.538  0.1817E-08  0.2640E+03
      4.670  0.0000E+00  0.2640E+03
      4.801  0.0000E+00  0.2640E+03
      4.933  0.0000E+00  0.2640E+03
      5.065  0.0000E+00  0.2640E+03
      5.197  0.0000E+00  0.2640E+03
      5.328  0.0000E+00  0.2640E+03
      5.460  0.0000E+00  0.2640E+03
      5.592  0.0000E+00  0.2640E+03
      5.723  0.0000E+00  0.2640E+03
      5.855  0.0000E+00  0.2640E+03
      5.987  0.0000E+00  0.2640E+03
