                                                                                     
                             WELCOME TO ABACUS v3.0                                  
                                                                                     
               'Atomic-orbital Based Ab-initio Computation at UStc'                  
                                                                                     
                     Website: http://abacus.ustc.edu.cn/                             
                                                                                     
    Version: Parallel, in development
    Processor Number is 16
    Start Time is Thu Nov 14 19:56:32 2024
                                                                                     
 ------------------------------------------------------------------------------------

 READING GENERAL INFORMATION
                           global_out_dir = OUT.ABACUS/
                           global_in_card = INPUT
                               pseudo_dir = 
                              orbital_dir = 
                                    DRANK = 1
                                    DSIZE = 16
                                   DCOLOR = 1
                                    GRANK = 1
                                    GSIZE = 1
 The esolver type has been set to : ksdft_lcao




 >>>>>>>>>>>>>>>>>>>>>>>>>>>>>>>>>>>>>>>>>>>>>>>>>>>>>>>>>>>>>>>>>>>>>>
 |                                                                    |
 | Reading atom information in unitcell:                              |
 | From the input file and the structure file we know the number of   |
 | different elments in this unitcell, then we list the detail        |
 | information for each element, especially the zeta and polar atomic |
 | orbital number for each element. The total atom number is counted. |
 | We calculate the nearest atom distance for each atom and show the  |
 | Cartesian and Direct coordinates for each atom. We list the file   |
 | address for atomic orbitals. The volume and the lattice vectors    |
 | in real and reciprocal space is also shown.                        |
 |                                                                    |
 <<<<<<<<<<<<<<<<<<<<<<<<<<<<<<<<<<<<<<<<<<<<<<<<<<<<<<<<<<<<<<<<<<<<<<




 READING UNITCELL INFORMATION
                                    ntype = 3
                 atom label for species 1 = C
                 atom label for species 2 = Mo
                 atom label for species 3 = S
                  lattice constant (Bohr) = 1.88973
              lattice constant (Angstrom) = 1

 READING ATOM TYPE 1
                               atom label = C
                      L=0, number of zeta = 2
                      L=1, number of zeta = 2
                      L=2, number of zeta = 1
             number of atom for this type = 32
                      start magnetization = FALSE
                      start magnetization = FALSE
                      start magnetization = FALSE
                      start magnetization = FALSE
                      start magnetization = FALSE
                      start magnetization = FALSE
                      start magnetization = FALSE
                      start magnetization = FALSE
                      start magnetization = FALSE
                      start magnetization = FALSE
                      start magnetization = FALSE
                      start magnetization = FALSE
                      start magnetization = FALSE
                      start magnetization = FALSE
                      start magnetization = FALSE
                      start magnetization = FALSE
                      start magnetization = FALSE
                      start magnetization = FALSE
                      start magnetization = FALSE
                      start magnetization = FALSE
                      start magnetization = FALSE
                      start magnetization = FALSE
                      start magnetization = FALSE
                      start magnetization = FALSE
                      start magnetization = FALSE
                      start magnetization = FALSE
                      start magnetization = FALSE
                      start magnetization = FALSE
                      start magnetization = FALSE
                      start magnetization = FALSE
                      start magnetization = FALSE
                      start magnetization = FALSE

 READING ATOM TYPE 2
                               atom label = Mo
                      L=0, number of zeta = 4
                      L=1, number of zeta = 2
                      L=2, number of zeta = 2
                      L=3, number of zeta = 1
             number of atom for this type = 9
                      start magnetization = FALSE
                      start magnetization = FALSE
                      start magnetization = FALSE
                      start magnetization = FALSE
                      start magnetization = FALSE
                      start magnetization = FALSE
                      start magnetization = FALSE
                      start magnetization = FALSE
                      start magnetization = FALSE

 READING ATOM TYPE 3
                               atom label = S
                      L=0, number of zeta = 2
                      L=1, number of zeta = 2
                      L=2, number of zeta = 1
             number of atom for this type = 18
                      start magnetization = FALSE
                      start magnetization = FALSE
                      start magnetization = FALSE
                      start magnetization = FALSE
                      start magnetization = FALSE
                      start magnetization = FALSE
                      start magnetization = FALSE
                      start magnetization = FALSE
                      start magnetization = FALSE
                      start magnetization = FALSE
                      start magnetization = FALSE
                      start magnetization = FALSE
                      start magnetization = FALSE
                      start magnetization = FALSE
                      start magnetization = FALSE
                      start magnetization = FALSE
                      start magnetization = FALSE
                      start magnetization = FALSE

                        TOTAL ATOM NUMBER = 59

 DIRECT COORDINATES
         atom                   x                   y                   z                 mag                  vx                  vy                  vz
      taud_C1                   0                   0                 0.2                   0                   0                   0                   0
      taud_C2                0.25                   0                 0.2                   0                   0                   0                   0
      taud_C3                 0.5                   0                 0.2                   0                   0                   0                   0
      taud_C4                0.75                   0                 0.2                   0                   0                   0                   0
      taud_C5                   0                0.25                 0.2                   0                   0                   0                   0
      taud_C6                0.25                0.25                 0.2                   0                   0                   0                   0
      taud_C7                 0.5                0.25                 0.2                   0                   0                   0                   0
      taud_C8                0.75                0.25                 0.2                   0                   0                   0                   0
      taud_C9                   0                 0.5                 0.2                   0                   0                   0                   0
     taud_C10                0.25                 0.5                 0.2                   0                   0                   0                   0
     taud_C11                 0.5                 0.5                 0.2                   0                   0                   0                   0
     taud_C12                0.75                 0.5                 0.2                   0                   0                   0                   0
     taud_C13                   0                0.75                 0.2                   0                   0                   0                   0
     taud_C14                0.25                0.75                 0.2                   0                   0                   0                   0
     taud_C15                 0.5                0.75                 0.2                   0                   0                   0                   0
     taud_C16                0.75                0.75                 0.2                   0                   0                   0                   0
     taud_C17            0.166667           0.0833332                 0.2                   0                   0                   0                   0
     taud_C18            0.416667           0.0833332                 0.2                   0                   0                   0                   0
     taud_C19            0.666667           0.0833332                 0.2                   0                   0                   0                   0
     taud_C20            0.916667           0.0833332                 0.2                   0                   0                   0                   0
     taud_C21            0.166667            0.333333                 0.2                   0                   0                   0                   0
     taud_C22            0.416667            0.333333                 0.2                   0                   0                   0                   0
     taud_C23            0.666667            0.333333                 0.2                   0                   0                   0                   0
     taud_C24            0.916667            0.333333                 0.2                   0                   0                   0                   0
     taud_C25            0.166667            0.583333                 0.2                   0                   0                   0                   0
     taud_C26            0.416667            0.583333                 0.2                   0                   0                   0                   0
     taud_C27            0.666667            0.583333                 0.2                   0                   0                   0                   0
     taud_C28            0.916667            0.583333                 0.2                   0                   0                   0                   0
     taud_C29            0.166667            0.833333                 0.2                   0                   0                   0                   0
     taud_C30            0.416667            0.833333                 0.2                   0                   0                   0                   0
     taud_C31            0.666667            0.833333                 0.2                   0                   0                   0                   0
     taud_C32            0.916667            0.833333                 0.2                   0                   0                   0                   0
     taud_Mo1            0.222222            0.111111            0.506315                   0                   0                   0                   0
     taud_Mo2            0.555556            0.111111            0.506315                   0                   0                   0                   0
     taud_Mo3            0.888889            0.111111            0.506315                   0                   0                   0                   0
     taud_Mo4            0.222222            0.444444            0.506315                   0                   0                   0                   0
     taud_Mo5            0.555556            0.444444            0.506315                   0                   0                   0                   0
     taud_Mo6            0.888889            0.444444            0.506315                   0                   0                   0                   0
     taud_Mo7            0.222222            0.777778            0.506315                   0                   0                   0                   0
     taud_Mo8            0.555556            0.777778            0.506315                   0                   0                   0                   0
     taud_Mo9            0.888889            0.777778            0.506315                   0                   0                   0                   0
      taud_S1            0.111111            0.222222            0.581265                   0                   0                   0                   0
      taud_S2            0.444444            0.222222            0.581265                   0                   0                   0                   0
      taud_S3            0.777778            0.222222            0.581265                   0                   0                   0                   0
      taud_S4            0.111111            0.555556            0.581265                   0                   0                   0                   0
      taud_S5            0.444444            0.555556            0.581265                   0                   0                   0                   0
      taud_S6            0.777778            0.555556            0.581265                   0                   0                   0                   0
      taud_S7            0.111111            0.888889            0.581265                   0                   0                   0                   0
      taud_S8            0.444444            0.888889            0.581265                   0                   0                   0                   0
      taud_S9            0.777778            0.888889            0.581265                   0                   0                   0                   0
     taud_S10            0.111111            0.222222            0.431365                   0                   0                   0                   0
     taud_S11            0.444444            0.222222            0.431365                   0                   0                   0                   0
     taud_S12            0.777778            0.222222            0.431365                   0                   0                   0                   0
     taud_S13            0.111111            0.555556            0.431365                   0                   0                   0                   0
     taud_S14            0.444444            0.555556            0.431365                   0                   0                   0                   0
     taud_S15            0.777778            0.555556            0.431365                   0                   0                   0                   0
     taud_S16            0.111111            0.888889            0.431365                   0                   0                   0                   0
     taud_S17            0.444444            0.888889            0.431365                   0                   0                   0                   0
     taud_S18            0.777778            0.888889            0.431365                   0                   0                   0                   0


 READING ORBITAL FILE NAMES FOR LCAO
 orbital file: C_gga_7au_60Ry_2s2p1d.orb
 orbital file: Mo_gga_8au_60Ry_4s2p2d1f.orb
 orbital file: S_gga_7au_60Ry_2s2p1d.orb

                          Volume (Bohr^3) = 11317.4
                             Volume (A^3) = 1677.07

 Lattice vectors: (Cartesian coordinate: in unit of a_0)
                +9.84                  +0                  +0
                -4.92            +8.52169                  +0
                   +0                  +0                 +20
 Reciprocal vectors: (Cartesian coordinate: in unit of 2 pi/a_0)
            +0.101626          +0.0586738                  -0
                   -0           +0.117348                  -0
                   +0                  -0               +0.05




 >>>>>>>>>>>>>>>>>>>>>>>>>>>>>>>>>>>>>>>>>>>>>>>>>>>>>>>>>>>>>>>>>>>>>>
 |                                                                    |
 | Reading pseudopotentials files:                                    |
 | The pseudopotential file is in UPF format. The 'NC' indicates that |
 | the type of pseudopotential is 'norm conserving'. Functional of    |
 | exchange and correlation is decided by 4 given parameters in UPF   |
 | file.  We also read in the 'core correction' if there exists.      |
 | Also we can read the valence electrons number and the maximal      |
 | angular momentum used in this pseudopotential. We also read in the |
 | trail wave function, trail atomic density and local-pseudopotential|
 | on logrithmic grid. The non-local pseudopotential projector is also|
 | read in if there is any.                                           |
 |                                                                    |
 <<<<<<<<<<<<<<<<<<<<<<<<<<<<<<<<<<<<<<<<<<<<<<<<<<<<<<<<<<<<<<<<<<<<<<




                PAO radial cut off (Bohr) = 15

 Read in pseudopotential file is ./C_ONCV_PBE-1.0.upf
                     pseudopotential type = NC
          exchange-correlation functional = PBE
                 nonlocal core correction = 0
                        valence electrons = 4
                                     lmax = 1
                           number of zeta = 0
                     number of projectors = 4
                           L of projector = 0
                           L of projector = 0
                           L of projector = 1
                           L of projector = 1
                PAO radial cut off (Bohr) = 15

 Read in pseudopotential file is ./Mo_ONCV_PBE-1.0.upf
                     pseudopotential type = NC
          exchange-correlation functional = PBE
                 nonlocal core correction = 0
                        valence electrons = 14
                                     lmax = 2
                           number of zeta = 0
                     number of projectors = 6
                           L of projector = 0
                           L of projector = 0
                           L of projector = 1
                           L of projector = 1
                           L of projector = 2
                           L of projector = 2
                PAO radial cut off (Bohr) = 15

 Read in pseudopotential file is ./S_ONCV_PBE-1.0.upf
                     pseudopotential type = NC
          exchange-correlation functional = PBE
                 nonlocal core correction = 0
                        valence electrons = 6
                                     lmax = 1
                           number of zeta = 0
                     number of projectors = 4
                           L of projector = 0
                           L of projector = 0
                           L of projector = 1
                           L of projector = 1
     initial pseudo atomic orbital number = 0
                                   NLOCAL = 893

%%%%%%%%%%%%%%%%%%%%%%%%%%%%%%%%%%%%%%%%%%%%%%%%%%%%%%%%%%%%%%%%%%%%%%%
 Warning: number valence electrons > 6 for Mo: [Kr] 4d5 5s1
 Please make sure the pseudopential file is what you need
%%%%%%%%%%%%%%%%%%%%%%%%%%%%%%%%%%%%%%%%%%%%%%%%%%%%%%%%%%%%%%%%%%%%%%%
                  




 >>>>>>>>>>>>>>>>>>>>>>>>>>>>>>>>>>>>>>>>>>>>>>>>>>>>>>>>>>>>>>>>>>>>>>
 |                                                                    |
 | Setup plane waves of charge/potential:                             |
 | Use the energy cutoff and the lattice vectors to generate the      |
 | dimensions of FFT grid. The number of FFT grid on each processor   |
 | is 'nrxx'. The number of plane wave basis in reciprocal space is   |
 | different for charege/potential and wave functions. We also set    |
 | the 'sticks' for the parallel of FFT. The number of plane waves    |
 | is 'npw' in each processor.                                        |
 <<<<<<<<<<<<<<<<<<<<<<<<<<<<<<<<<<<<<<<<<<<<<<<<<<<<<<<<<<<<<<<<<<<<<<





 SETUP THE PLANE WAVE BASIS
 energy cutoff for charge/potential (unit:Ry) = 240
          [fft grid for charge/potential] = 96, 96, 192
                      [fft grid division] = 2, 2, 2
      [big fft grid for charge/potential] = 48, 48, 96
                                     nbxx = 13824
                                     nrxx = 110592

 SETUP PLANE WAVES FOR CHARGE/POTENTIAL
                    number of plane waves = 710497
                         number of sticks = 5719

 PARALLEL PW FOR CHARGE/POTENTIAL
     PROC   COLUMNS(POT)             PW
        1            357          44405
        2            357          44405
        3            357          44405
        4            357          44405
        5            358          44408
        6            358          44408
        7            358          44408
        8            358          44408
        9            358          44408
       10            358          44408
       11            357          44405
       12            357          44405
       13            357          44405
       14            358          44408
       15            357          44403
       16            357          44403
 --------------- sum -------------------
       16           5719         710497
                            number of |g| = 15709
                                  max |g| = 21.7087
                                  min |g| = 0.0413114

 SETUP THE ELECTRONS NUMBER
             electron number of element C = 4
       total electron number of element C = 128
            electron number of element Mo = 14
      total electron number of element Mo = 126
             electron number of element S = 6
       total electron number of element S = 108
            AUTOSET number of electrons:  = 362
 DONE : SETUP UNITCELL Time : 0.148158 (SEC)





 >>>>>>>>>>>>>>>>>>>>>>>>>>>>>>>>>>>>>>>>>>>>>>>>>>>>>>>>>>>>>>>>>>>>>>
 |                                                                    |
 | Setup K-points                                                     |
 | We setup the k-points according to input parameters.               |
 | The reduced k-points are set according to symmetry operations.     |
 | We treat the spin as another set of k-points.                      |
 |                                                                    |
 <<<<<<<<<<<<<<<<<<<<<<<<<<<<<<<<<<<<<<<<<<<<<<<<<<<<<<<<<<<<<<<<<<<<<<





 SETUP K-POINTS
                                    nspin = 1
                                   nkstot = 101

  KPOINTS            DIRECT_X            DIRECT_Y            DIRECT_Z              WEIGHT
        1                 1.5                   0                   0                   1
        2                1.47                   0                   0                   1
        3                1.44                   0                   0                   1
        4                1.41                   0                   0                   1
        5                1.38                   0                   0                   1
        6                1.35                   0                   0                   1
        7                1.32                   0                   0                   1
        8                1.29                   0                   0                   1
        9                1.26                   0                   0                   1
       10                1.23                   0                   0                   1
       11                 1.2                   0                   0                   1
       12                1.17                   0                   0                   1
       13                1.14                   0                   0                   1
       14                1.11                   0                   0                   1
       15                1.08                   0                   0                   1
       16                1.05                   0                   0                   1
       17                1.02                   0                   0                   1
       18                0.99                   0                   0                   1
       19                0.96                   0                   0                   1
       20                0.93                   0                   0                   1
       21                 0.9                   0                   0                   1
       22                0.87                   0                   0                   1
       23                0.84                   0                   0                   1
       24                0.81                   0                   0                   1
       25                0.78                   0                   0                   1
       26                0.75                   0                   0                   1
       27                0.72                   0                   0                   1
       28                0.69                   0                   0                   1
       29                0.66                   0                   0                   1
       30                0.63                   0                   0                   1
       31                 0.6                   0                   0                   1
       32                0.57                   0                   0                   1
       33                0.54                   0                   0                   1
       34                0.51                   0                   0                   1
       35                0.48                   0                   0                   1
       36                0.45                   0                   0                   1
       37                0.42                   0                   0                   1
       38                0.39                   0                   0                   1
       39                0.36                   0                   0                   1
       40                0.33                   0                   0                   1
       41                 0.3                   0                   0                   1
       42                0.27                   0                   0                   1
       43                0.24                   0                   0                   1
       44                0.21                   0                   0                   1
       45                0.18                   0                   0                   1
       46                0.15                   0                   0                   1
       47                0.12                   0                   0                   1
       48                0.09                   0                   0                   1
       49                0.06                   0                   0                   1
       50                0.03                   0                   0                   1
       51                   0                   0                   0                   1
       52                0.02                0.02                   0                   1
       53                0.04                0.04                   0                   1
       54                0.06                0.06                   0                   1
       55                0.08                0.08                   0                   1
       56                 0.1                 0.1                   0                   1
       57                0.12                0.12                   0                   1
       58                0.14                0.14                   0                   1
       59                0.16                0.16                   0                   1
       60                0.18                0.18                   0                   1
       61                 0.2                 0.2                   0                   1
       62                0.22                0.22                   0                   1
       63                0.24                0.24                   0                   1
       64                0.26                0.26                   0                   1
       65                0.28                0.28                   0                   1
       66                 0.3                 0.3                   0                   1
       67                0.32                0.32                   0                   1
       68                0.34                0.34                   0                   1
       69                0.36                0.36                   0                   1
       70                0.38                0.38                   0                   1
       71                 0.4                 0.4                   0                   1
       72                0.42                0.42                   0                   1
       73                0.44                0.44                   0                   1
       74                0.46                0.46                   0                   1
       75                0.48                0.48                   0                   1
       76                 0.5                 0.5                   0                   1
       77                0.52                0.52                   0                   1
       78                0.54                0.54                   0                   1
       79                0.56                0.56                   0                   1
       80                0.58                0.58                   0                   1
       81                 0.6                 0.6                   0                   1
       82                0.62                0.62                   0                   1
       83                0.64                0.64                   0                   1
       84                0.66                0.66                   0                   1
       85                0.68                0.68                   0                   1
       86                 0.7                 0.7                   0                   1
       87                0.72                0.72                   0                   1
       88                0.74                0.74                   0                   1
       89                0.76                0.76                   0                   1
       90                0.78                0.78                   0                   1
       91                 0.8                 0.8                   0                   1
       92                0.82                0.82                   0                   1
       93                0.84                0.84                   0                   1
       94                0.86                0.86                   0                   1
       95                0.88                0.88                   0                   1
       96                 0.9                 0.9                   0                   1
       97                0.92                0.92                   0                   1
       98                0.94                0.94                   0                   1
       99                0.96                0.96                   0                   1
      100                0.98                0.98                   0                   1
      101                   1                   1                   0                   1

           k-point number in this process = 101
       minimum distributed K point number = 101

  KPOINTS         CARTESIAN_X         CARTESIAN_Y         CARTESIAN_Z              WEIGHT
        1            0.152439           0.0880107                   0            0.019802
        2             0.14939           0.0862505                   0            0.019802
        3            0.146341           0.0844903                   0            0.019802
        4            0.143293           0.0827301                   0            0.019802
        5            0.140244           0.0809699                   0            0.019802
        6            0.137195           0.0792096                   0            0.019802
        7            0.134146           0.0774494                   0            0.019802
        8            0.131098           0.0756892                   0            0.019802
        9            0.128049            0.073929                   0            0.019802
       10               0.125           0.0721688                   0            0.019802
       11            0.121951           0.0704086                   0            0.019802
       12            0.118902           0.0686484                   0            0.019802
       13            0.115854           0.0668881                   0            0.019802
       14            0.112805           0.0651279                   0            0.019802
       15            0.109756           0.0633677                   0            0.019802
       16            0.106707           0.0616075                   0            0.019802
       17            0.103659           0.0598473                   0            0.019802
       18             0.10061           0.0580871                   0            0.019802
       19            0.097561           0.0563269                   0            0.019802
       20           0.0945122           0.0545666                   0            0.019802
       21           0.0914634           0.0528064                   0            0.019802
       22           0.0884146           0.0510462                   0            0.019802
       23           0.0853659            0.049286                   0            0.019802
       24           0.0823171           0.0475258                   0            0.019802
       25           0.0792683           0.0457656                   0            0.019802
       26           0.0762195           0.0440054                   0            0.019802
       27           0.0731707           0.0422451                   0            0.019802
       28            0.070122           0.0404849                   0            0.019802
       29           0.0670732           0.0387247                   0            0.019802
       30           0.0640244           0.0369645                   0            0.019802
       31           0.0609756           0.0352043                   0            0.019802
       32           0.0579268           0.0334441                   0            0.019802
       33            0.054878           0.0316839                   0            0.019802
       34           0.0518293           0.0299236                   0            0.019802
       35           0.0487805           0.0281634                   0            0.019802
       36           0.0457317           0.0264032                   0            0.019802
       37           0.0426829            0.024643                   0            0.019802
       38           0.0396341           0.0228828                   0            0.019802
       39           0.0365854           0.0211226                   0            0.019802
       40           0.0335366           0.0193624                   0            0.019802
       41           0.0304878           0.0176021                   0            0.019802
       42            0.027439           0.0158419                   0            0.019802
       43           0.0243902           0.0140817                   0            0.019802
       44           0.0213415           0.0123215                   0            0.019802
       45           0.0182927           0.0105613                   0            0.019802
       46           0.0152439          0.00880107                   0            0.019802
       47           0.0121951          0.00704086                   0            0.019802
       48          0.00914634          0.00528064                   0            0.019802
       49          0.00609756          0.00352043                   0            0.019802
       50          0.00304878          0.00176021                   0            0.019802
       51                   0                   0                   0            0.019802
       52          0.00203252          0.00352043                   0            0.019802
       53          0.00406504          0.00704086                   0            0.019802
       54          0.00609756           0.0105613                   0            0.019802
       55          0.00813008           0.0140817                   0            0.019802
       56           0.0101626           0.0176021                   0            0.019802
       57           0.0121951           0.0211226                   0            0.019802
       58           0.0142276            0.024643                   0            0.019802
       59           0.0162602           0.0281634                   0            0.019802
       60           0.0182927           0.0316839                   0            0.019802
       61           0.0203252           0.0352043                   0            0.019802
       62           0.0223577           0.0387247                   0            0.019802
       63           0.0243902           0.0422451                   0            0.019802
       64           0.0264228           0.0457656                   0            0.019802
       65           0.0284553            0.049286                   0            0.019802
       66           0.0304878           0.0528064                   0            0.019802
       67           0.0325203           0.0563269                   0            0.019802
       68           0.0345528           0.0598473                   0            0.019802
       69           0.0365854           0.0633677                   0            0.019802
       70           0.0386179           0.0668881                   0            0.019802
       71           0.0406504           0.0704086                   0            0.019802
       72           0.0426829            0.073929                   0            0.019802
       73           0.0447154           0.0774494                   0            0.019802
       74            0.046748           0.0809699                   0            0.019802
       75           0.0487805           0.0844903                   0            0.019802
       76            0.050813           0.0880107                   0            0.019802
       77           0.0528455           0.0915311                   0            0.019802
       78            0.054878           0.0950516                   0            0.019802
       79           0.0569106            0.098572                   0            0.019802
       80           0.0589431            0.102092                   0            0.019802
       81           0.0609756            0.105613                   0            0.019802
       82           0.0630081            0.109133                   0            0.019802
       83           0.0650406            0.112654                   0            0.019802
       84           0.0670732            0.116174                   0            0.019802
       85           0.0691057            0.119695                   0            0.019802
       86           0.0711382            0.123215                   0            0.019802
       87           0.0731707            0.126735                   0            0.019802
       88           0.0752033            0.130256                   0            0.019802
       89           0.0772358            0.133776                   0            0.019802
       90           0.0792683            0.137297                   0            0.019802
       91           0.0813008            0.140817                   0            0.019802
       92           0.0833333            0.144338                   0            0.019802
       93           0.0853659            0.147858                   0            0.019802
       94           0.0873984            0.151378                   0            0.019802
       95           0.0894309            0.154899                   0            0.019802
       96           0.0914634            0.158419                   0            0.019802
       97           0.0934959             0.16194                   0            0.019802
       98           0.0955285             0.16546                   0            0.019802
       99            0.097561            0.168981                   0            0.019802
      100           0.0995935            0.172501                   0            0.019802
      101            0.101626            0.176021                   0            0.019802

  KPOINTS            DIRECT_X            DIRECT_Y            DIRECT_Z              WEIGHT
        1                 1.5                   0                   0            0.019802
        2                1.47                   0                   0            0.019802
        3                1.44                   0                   0            0.019802
        4                1.41                   0                   0            0.019802
        5                1.38                   0                   0            0.019802
        6                1.35                   0                   0            0.019802
        7                1.32                   0                   0            0.019802
        8                1.29                   0                   0            0.019802
        9                1.26                   0                   0            0.019802
       10                1.23                   0                   0            0.019802
       11                 1.2                   0                   0            0.019802
       12                1.17                   0                   0            0.019802
       13                1.14                   0                   0            0.019802
       14                1.11                   0                   0            0.019802
       15                1.08                   0                   0            0.019802
       16                1.05                   0                   0            0.019802
       17                1.02                   0                   0            0.019802
       18                0.99                   0                   0            0.019802
       19                0.96                   0                   0            0.019802
       20                0.93                   0                   0            0.019802
       21                 0.9                   0                   0            0.019802
       22                0.87                   0                   0            0.019802
       23                0.84                   0                   0            0.019802
       24                0.81                   0                   0            0.019802
       25                0.78                   0                   0            0.019802
       26                0.75                   0                   0            0.019802
       27                0.72                   0                   0            0.019802
       28                0.69                   0                   0            0.019802
       29                0.66                   0                   0            0.019802
       30                0.63                   0                   0            0.019802
       31                 0.6                   0                   0            0.019802
       32                0.57                   0                   0            0.019802
       33                0.54                   0                   0            0.019802
       34                0.51                   0                   0            0.019802
       35                0.48                   0                   0            0.019802
       36                0.45                   0                   0            0.019802
       37                0.42                   0                   0            0.019802
       38                0.39                   0                   0            0.019802
       39                0.36                   0                   0            0.019802
       40                0.33                   0                   0            0.019802
       41                 0.3                   0                   0            0.019802
       42                0.27                   0                   0            0.019802
       43                0.24                   0                   0            0.019802
       44                0.21                   0                   0            0.019802
       45                0.18                   0                   0            0.019802
       46                0.15                   0                   0            0.019802
       47                0.12                   0                   0            0.019802
       48                0.09                   0                   0            0.019802
       49                0.06                   0                   0            0.019802
       50                0.03                   0                   0            0.019802
       51                   0                   0                   0            0.019802
       52                0.02                0.02                   0            0.019802
       53                0.04                0.04                   0            0.019802
       54                0.06                0.06                   0            0.019802
       55                0.08                0.08                   0            0.019802
       56                 0.1                 0.1                   0            0.019802
       57                0.12                0.12                   0            0.019802
       58                0.14                0.14                   0            0.019802
       59                0.16                0.16                   0            0.019802
       60                0.18                0.18                   0            0.019802
       61                 0.2                 0.2                   0            0.019802
       62                0.22                0.22                   0            0.019802
       63                0.24                0.24                   0            0.019802
       64                0.26                0.26                   0            0.019802
       65                0.28                0.28                   0            0.019802
       66                 0.3                 0.3                   0            0.019802
       67                0.32                0.32                   0            0.019802
       68                0.34                0.34                   0            0.019802
       69                0.36                0.36                   0            0.019802
       70                0.38                0.38                   0            0.019802
       71                 0.4                 0.4                   0            0.019802
       72                0.42                0.42                   0            0.019802
       73                0.44                0.44                   0            0.019802
       74                0.46                0.46                   0            0.019802
       75                0.48                0.48                   0            0.019802
       76                 0.5                 0.5                   0            0.019802
       77                0.52                0.52                   0            0.019802
       78                0.54                0.54                   0            0.019802
       79                0.56                0.56                   0            0.019802
       80                0.58                0.58                   0            0.019802
       81                 0.6                 0.6                   0            0.019802
       82                0.62                0.62                   0            0.019802
       83                0.64                0.64                   0            0.019802
       84                0.66                0.66                   0            0.019802
       85                0.68                0.68                   0            0.019802
       86                 0.7                 0.7                   0            0.019802
       87                0.72                0.72                   0            0.019802
       88                0.74                0.74                   0            0.019802
       89                0.76                0.76                   0            0.019802
       90                0.78                0.78                   0            0.019802
       91                 0.8                 0.8                   0            0.019802
       92                0.82                0.82                   0            0.019802
       93                0.84                0.84                   0            0.019802
       94                0.86                0.86                   0            0.019802
       95                0.88                0.88                   0            0.019802
       96                 0.9                 0.9                   0            0.019802
       97                0.92                0.92                   0            0.019802
       98                0.94                0.94                   0            0.019802
       99                0.96                0.96                   0            0.019802
      100                0.98                0.98                   0            0.019802
      101                   1                   1                   0            0.019802
 DONE : INIT K-POINTS Time : 0.162479 (SEC)

                           occupied bands = 181
                                   NLOCAL = 893
                                   NBANDS = 217
                                   NBANDS = 217




 >>>>>>>>>>>>>>>>>>>>>>>>>>>>>>>>>>>>>>>>>>>>>>>>>>>>>>>>>>>>>>>>>>>>>>
 |                                                                    |
 | Setup numerical orbitals:                                          |
 | This part setup: numerical atomic orbitals, non-local projectors   |
 | and neutral potential (1D). The atomic orbitals information        |
 | including the radius, angular momentum and zeta number.            |
 | The neutral potential is the sum of local part of pseudopotential  |
 | and potential given by atomic charge, they will cancel out beyond  |
 | a certain radius cutoff, because the Z/r character.                |
 |                                                                    |
 <<<<<<<<<<<<<<<<<<<<<<<<<<<<<<<<<<<<<<<<<<<<<<<<<<<<<<<<<<<<<<<<<<<<<<





 SETUP ONE DIMENSIONAL ORBITALS/POTENTIAL
                        delta k  (1/Bohr) = 0.01
                        delta r    (Bohr) = 0.01
                        dr_uniform (Bohr) = 0.001
                        rmax       (Bohr) = 30
                                    kmesh = 779
      ORBITAL  L  N      nr      dr    RCUT  CHECK_UNIT    NEW_UNIT
            1  0  0     701    0.01       7           1           1
            2  0  1     701    0.01       7           1           1
            3  1  0     701    0.01       7           1           1
            4  1  1     701    0.01       7           1           1
            5  2  0     701    0.01       7           1           1
      ORBITAL  L  N      nr      dr    RCUT  CHECK_UNIT    NEW_UNIT
            1  0  0     801    0.01       8           1           1
            2  0  1     801    0.01       8           1           1
            3  0  2     801    0.01       8           1           1
            4  0  3     801    0.01       8           1           1
            5  1  0     801    0.01       8           1           1
            6  1  1     801    0.01       8           1           1
            7  2  0     801    0.01       8           1           1
            8  2  1     801    0.01       8           1           1
            9  3  0     801    0.01       8           1           1
      ORBITAL  L  N      nr      dr    RCUT  CHECK_UNIT    NEW_UNIT
            1  0  0     701    0.01       7           1           1
            2  0  1     701    0.01       7           1           1
            3  1  0     701    0.01       7           1           1
            4  1  1     701    0.01       7           1           1
            5  2  0     701    0.01       7           1           1
 SET NONLOCAL PSEUDOPOTENTIAL PROJECTORS
 SET NONLOCAL PSEUDOPOTENTIAL PROJECTORS
 SET NONLOCAL PSEUDOPOTENTIAL PROJECTORS
 max number of nonlocal projetors among all species is 6

 SETUP THE TWO-CENTER INTEGRATION TABLES

 SETUP THE DIVISION OF H/S MATRIX
 divide the H&S matrix using 2D block algorithms.
                                     nb2d = 32
                  trace_loc_row dimension = 893
                  trace_loc_col dimension = 893
                                     nloc = 50176




 >>>>>>>>>>>>>>>>>>>>>>>>>>>>>>>>>>>>>>>>>>>>>>>>>>>>>>>>>>>>>>>>>>>>>>
 |                                                                    |
 | Search adjacent atoms:                                             |
 | Set the adjacent atoms for each atom and set the periodic boundary |
 | condition for the atoms on real space FFT grid. For k-dependent    |
 | algorithm, we also need to set the sparse H and S matrix element   |
 | for each atom.                                                     |
 |                                                                    |
 <<<<<<<<<<<<<<<<<<<<<<<<<<<<<<<<<<<<<<<<<<<<<<<<<<<<<<<<<<<<<<<<<<<<<<





 SETUP SEARCHING RADIUS FOR PROGRAM TO SEARCH ADJACENT ATOMS
                  longest orb rcut (Bohr) = 8
   longest nonlocal projector rcut (Bohr) = 2.82
              searching radius is (Bohr)) = 21.7
         searching radius unit is (Bohr)) = 1.89

 SETUP EXTENDED REAL SPACE GRID FOR GRID INTEGRATION
                        [real space grid] = 96, 96, 192
               [big cell numbers in grid] = 48, 48, 96
           [meshcell numbers in big cell] = 2, 2, 2
                      [extended fft grid] = 24, 24, 21
              [dimension of extened grid] = 97, 97, 139
                            UnitCellTotal = 27
              Atom number in sub-FFT-grid = 32
    Local orbitals number in sub-FFT-grid = 416
                                ParaV.nnr = 105968
                                     nnrg = 362336
Successful completion of Potential's registration : local
Successful completion of Potential's registration : hartree
Successful completion of Potential's registration : xc
Successful completion of Potential's registration : tddft
 Memory of pvpR : 2.76 MB
                                nnrg_last = 0
                                 nnrg_now = 362336
                                 init_chg = file
 try to read charge from file : OUT.ABACUS/SPIN1_CHG
 Find the file, try to read charge from file.
 read in fermi energy = 0.146
 Read in the charge density: OUT.ABACUS/SPIN1_CHG
 end of band structure calculation 
 band eigenvalue in this processor (eV) :
 k-points1(101): 0.152439 0.0880107 0
 spin1final_state 1 -60.2033 0
 spin1final_state 2 -60.2031 0
 spin1final_state 3 -60.1933 0
 spin1final_state 4 -60.1932 0
 spin1final_state 5 -60.1835 0
 spin1final_state 6 -60.1835 0
 spin1final_state 7 -60.1834 0
 spin1final_state 8 -60.1833 0
 spin1final_state 9 -60.1831 0
 spin1final_state 10 -34.4845 0
 spin1final_state 11 -34.4491 0
 spin1final_state 12 -34.4491 0
 spin1final_state 13 -34.449 0
 spin1final_state 14 -34.449 0
 spin1final_state 15 -34.3652 0
 spin1final_state 16 -34.3652 0
 spin1final_state 17 -34.2998 0
 spin1final_state 18 -34.2997 0
 spin1final_state 19 -34.2997 0
 spin1final_state 20 -34.2996 0
 spin1final_state 21 -34.2703 0
 spin1final_state 22 -34.2702 0
 spin1final_state 23 -34.2634 0
 spin1final_state 24 -34.2526 0
 spin1final_state 25 -34.2524 0
 spin1final_state 26 -34.252 0
 spin1final_state 27 -34.2519 0
 spin1final_state 28 -34.2303 0
 spin1final_state 29 -34.2302 0
 spin1final_state 30 -34.2136 0
 spin1final_state 31 -34.2134 0
 spin1final_state 32 -34.208 0
 spin1final_state 33 -34.208 0
 spin1final_state 34 -34.2079 0
 spin1final_state 35 -34.2078 0
 spin1final_state 36 -34.2077 0
 spin1final_state 37 -17.179 0
 spin1final_state 38 -17.1788 0
 spin1final_state 39 -16.4536 0
 spin1final_state 40 -16.4536 0
 spin1final_state 41 -15.0227 0
 spin1final_state 42 -15.0227 0
 spin1final_state 43 -15.0227 0
 spin1final_state 44 -15.0227 0
 spin1final_state 45 -14.3189 0
 spin1final_state 46 -14.3187 0
 spin1final_state 47 -12.9642 0
 spin1final_state 48 -12.9642 0
 spin1final_state 49 -12.964 0
 spin1final_state 50 -12.964 0
 spin1final_state 51 -12.9028 0
 spin1final_state 52 -12.9027 0
 spin1final_state 53 -12.3258 0
 spin1final_state 54 -12.3258 0
 spin1final_state 55 -11.6652 0
 spin1final_state 56 -11.6652 0
 spin1final_state 57 -11.6651 0
 spin1final_state 58 -11.6651 0
 spin1final_state 59 -11.6514 0
 spin1final_state 60 -11.6167 0
 spin1final_state 61 -11.6167 0
 spin1final_state 62 -11.4255 0
 spin1final_state 63 -11.4255 0
 spin1final_state 64 -11.3774 0
 spin1final_state 65 -11.3774 0
 spin1final_state 66 -11.2168 0
 spin1final_state 67 -11.2014 0
 spin1final_state 68 -11.2013 0
 spin1final_state 69 -11.2013 0
 spin1final_state 70 -11.2013 0
 spin1final_state 71 -10.5346 0
 spin1final_state 72 -10.5346 0
 spin1final_state 73 -10.1002 0
 spin1final_state 74 -10.1001 0
 spin1final_state 75 -10.0999 0
 spin1final_state 76 -10.0998 0
 spin1final_state 77 -8.79617 0
 spin1final_state 78 -8.79614 0
 spin1final_state 79 -7.86088 0
 spin1final_state 80 -7.86088 0
 spin1final_state 81 -7.10607 0
 spin1final_state 82 -7.10606 0
 spin1final_state 83 -7.10605 0
 spin1final_state 84 -7.10605 0
 spin1final_state 85 -5.54924 0
 spin1final_state 86 -5.5492 0
 spin1final_state 87 -5.54907 0
 spin1final_state 88 -5.54903 0
 spin1final_state 89 -5.19654 0
 spin1final_state 90 -5.19633 0
 spin1final_state 91 -4.83213 0
 spin1final_state 92 -4.78472 0
 spin1final_state 93 -4.78471 0
 spin1final_state 94 -4.7847 0
 spin1final_state 95 -4.78469 0
 spin1final_state 96 -4.42342 0
 spin1final_state 97 -4.4234 0
 spin1final_state 98 -4.42338 0
 spin1final_state 99 -4.42336 0
 spin1final_state 100 -4.34222 0
 spin1final_state 101 -4.34216 0
 spin1final_state 102 -4.33619 0
 spin1final_state 103 -4.33614 0
 spin1final_state 104 -4.32942 0
 spin1final_state 105 -4.32941 0
 spin1final_state 106 -4.18139 0
 spin1final_state 107 -4.18115 0
 spin1final_state 108 -4.16232 0
 spin1final_state 109 -4.16229 0
 spin1final_state 110 -3.9705 0
 spin1final_state 111 -3.97048 0
 spin1final_state 112 -3.97043 0
 spin1final_state 113 -3.97041 0
 spin1final_state 114 -3.68584 0
 spin1final_state 115 -3.26898 0
 spin1final_state 116 -3.26898 0
 spin1final_state 117 -3.21904 0
 spin1final_state 118 -3.13058 0
 spin1final_state 119 -3.13057 0
 spin1final_state 120 -3.03414 0
 spin1final_state 121 -3.03411 0
 spin1final_state 122 -3.03407 0
 spin1final_state 123 -3.03406 0
 spin1final_state 124 -2.88903 0
 spin1final_state 125 -2.88901 0
 spin1final_state 126 -2.85066 0
 spin1final_state 127 -2.8506 0
 spin1final_state 128 -2.67125 0
 spin1final_state 129 -2.67125 0
 spin1final_state 130 -2.67125 0
 spin1final_state 131 -2.67124 0
 spin1final_state 132 -2.5577 0
 spin1final_state 133 -2.53602 0
 spin1final_state 134 -2.53589 0
 spin1final_state 135 -2.30241 0
 spin1final_state 136 -2.3024 0
 spin1final_state 137 -2.29152 0
 spin1final_state 138 -2.29148 0
 spin1final_state 139 -2.29148 0
 spin1final_state 140 -2.29147 0
 spin1final_state 141 -2.05805 0
 spin1final_state 142 -2.05801 0
 spin1final_state 143 -1.92826 0
 spin1final_state 144 -1.927 0
 spin1final_state 145 -1.86536 0
 spin1final_state 146 -1.86509 0
 spin1final_state 147 -1.83622 0
 spin1final_state 148 -1.83613 0
 spin1final_state 149 -1.62739 0
 spin1final_state 150 -1.62737 0
 spin1final_state 151 -1.62736 0
 spin1final_state 152 -1.62735 0
 spin1final_state 153 -1.53803 0
 spin1final_state 154 -1.53797 0
 spin1final_state 155 -1.46423 0
 spin1final_state 156 -1.46422 0
 spin1final_state 157 -0.707426 0
 spin1final_state 158 -0.63243 0
 spin1final_state 159 -0.632336 0
 spin1final_state 160 -0.632211 0
 spin1final_state 161 -0.632153 0
 spin1final_state 162 -0.565852 0
 spin1final_state 163 -0.565636 0
 spin1final_state 164 -0.565605 0
 spin1final_state 165 -0.56542 0
 spin1final_state 166 -0.534313 0
 spin1final_state 167 -0.0852489 0
 spin1final_state 168 -0.0852102 0
 spin1final_state 169 -0.064965 0
 spin1final_state 170 -0.0649551 0
 spin1final_state 171 0.1013 0
 spin1final_state 172 0.101312 0
 spin1final_state 173 0.190211 0
 spin1final_state 174 0.190237 0
 spin1final_state 175 0.190273 0
 spin1final_state 176 0.190292 0
 spin1final_state 177 0.298814 0
 spin1final_state 178 0.823277 0
 spin1final_state 179 0.823333 0
 spin1final_state 180 0.985122 0
 spin1final_state 181 0.98515 0
 spin1final_state 182 2.68378 0
 spin1final_state 183 2.73697 0
 spin1final_state 184 2.737 0
 spin1final_state 185 2.73701 0
 spin1final_state 186 2.73708 0
 spin1final_state 187 2.89645 0
 spin1final_state 188 2.89646 0
 spin1final_state 189 2.99517 0
 spin1final_state 190 2.99519 0
 spin1final_state 191 3.19195 0
 spin1final_state 192 3.2584 0
 spin1final_state 193 3.25841 0
 spin1final_state 194 3.28033 0
 spin1final_state 195 3.28041 0
 spin1final_state 196 3.33137 0
 spin1final_state 197 3.33141 0
 spin1final_state 198 3.3948 0
 spin1final_state 199 3.39482 0
 spin1final_state 200 3.39488 0
 spin1final_state 201 3.39491 0
 spin1final_state 202 3.41034 0
 spin1final_state 203 3.41036 0
 spin1final_state 204 3.42232 0
 spin1final_state 205 3.42239 0
 spin1final_state 206 4.02719 0
 spin1final_state 207 4.02724 0
 spin1final_state 208 4.26333 0
 spin1final_state 209 4.26337 0
 spin1final_state 210 4.2635 0
 spin1final_state 211 4.26356 0
 spin1final_state 212 4.33889 0
 spin1final_state 213 4.33892 0
 spin1final_state 214 4.33929 0
 spin1final_state 215 4.33933 0
 spin1final_state 216 4.75594 0
 spin1final_state 217 4.92505 0

 k-points2(101): 0.14939 0.0862505 0
 spin1final_state 1 -60.2039 0
 spin1final_state 2 -60.2025 0
 spin1final_state 3 -60.1933 0
 spin1final_state 4 -60.1932 0
 spin1final_state 5 -60.1838 0
 spin1final_state 6 -60.1838 0
 spin1final_state 7 -60.1832 0
 spin1final_state 8 -60.1831 0
 spin1final_state 9 -60.183 0
 spin1final_state 10 -34.4842 0
 spin1final_state 11 -34.4492 0
 spin1final_state 12 -34.4492 0
 spin1final_state 13 -34.4486 0
 spin1final_state 14 -34.4486 0
 spin1final_state 15 -34.3655 0
 spin1final_state 16 -34.3654 0
 spin1final_state 17 -34.3048 0
 spin1final_state 18 -34.3048 0
 spin1final_state 19 -34.2947 0
 spin1final_state 20 -34.2947 0
 spin1final_state 21 -34.2783 0
 spin1final_state 22 -34.2633 0
 spin1final_state 23 -34.2624 0
 spin1final_state 24 -34.2541 0
 spin1final_state 25 -34.2519 0
 spin1final_state 26 -34.2518 0
 spin1final_state 27 -34.2509 0
 spin1final_state 28 -34.2303 0
 spin1final_state 29 -34.2302 0
 spin1final_state 30 -34.2153 0
 spin1final_state 31 -34.2117 0
 spin1final_state 32 -34.2088 0
 spin1final_state 33 -34.2087 0
 spin1final_state 34 -34.2078 0
 spin1final_state 35 -34.2071 0
 spin1final_state 36 -34.2071 0
 spin1final_state 37 -17.2213 0
 spin1final_state 38 -17.1339 0
 spin1final_state 39 -16.4523 0
 spin1final_state 40 -16.4523 0
 spin1final_state 41 -15.1064 0
 spin1final_state 42 -15.1063 0
 spin1final_state 43 -14.9367 0
 spin1final_state 44 -14.9367 0
 spin1final_state 45 -14.4432 0
 spin1final_state 46 -14.1924 0
 spin1final_state 47 -13.0013 0
 spin1final_state 48 -13.0013 0
 spin1final_state 49 -12.9414 0
 spin1final_state 50 -12.9249 0
 spin1final_state 51 -12.9249 0
 spin1final_state 52 -12.8624 0
 spin1final_state 53 -12.325 0
 spin1final_state 54 -12.325 0
 spin1final_state 55 -11.6905 0
 spin1final_state 56 -11.6905 0
 spin1final_state 57 -11.6533 0
 spin1final_state 58 -11.6406 0
 spin1final_state 59 -11.6406 0
 spin1final_state 60 -11.6294 0
 spin1final_state 61 -11.6035 0
 spin1final_state 62 -11.4253 0
 spin1final_state 63 -11.4253 0
 spin1final_state 64 -11.4025 0
 spin1final_state 65 -11.4025 0
 spin1final_state 66 -11.2174 0
 spin1final_state 67 -11.2114 0
 spin1final_state 68 -11.2114 0
 spin1final_state 69 -11.1914 0
 spin1final_state 70 -11.1914 0
 spin1final_state 71 -10.5089 0
 spin1final_state 72 -10.5089 0
 spin1final_state 73 -10.2064 0
 spin1final_state 74 -10.2064 0
 spin1final_state 75 -9.99212 0
 spin1final_state 76 -9.99211 0
 spin1final_state 77 -8.98476 0
 spin1final_state 78 -8.60609 0
 spin1final_state 79 -7.85852 0
 spin1final_state 80 -7.85851 0
 spin1final_state 81 -7.19316 0
 spin1final_state 82 -7.19314 0
 spin1final_state 83 -7.01809 0
 spin1final_state 84 -7.01807 0
 spin1final_state 85 -5.6559 0
 spin1final_state 86 -5.65588 0
 spin1final_state 87 -5.44542 0
 spin1final_state 88 -5.44541 0
 spin1final_state 89 -5.24719 0
 spin1final_state 90 -5.14261 0
 spin1final_state 91 -4.92634 0
 spin1final_state 92 -4.92632 0
 spin1final_state 93 -4.8305 0
 spin1final_state 94 -4.64593 0
 spin1final_state 95 -4.64591 0
 spin1final_state 96 -4.44942 0
 spin1final_state 97 -4.44941 0
 spin1final_state 98 -4.39371 0
 spin1final_state 99 -4.39371 0
 spin1final_state 100 -4.37425 0
 spin1final_state 101 -4.33717 0
 spin1final_state 102 -4.33716 0
 spin1final_state 103 -4.33473 0
 spin1final_state 104 -4.33469 0
 spin1final_state 105 -4.31126 0
 spin1final_state 106 -4.22275 0
 spin1final_state 107 -4.16384 0
 spin1final_state 108 -4.1638 0
 spin1final_state 109 -4.1374 0
 spin1final_state 110 -4.02488 0
 spin1final_state 111 -4.02487 0
 spin1final_state 112 -3.91469 0
 spin1final_state 113 -3.91468 0
 spin1final_state 114 -3.68389 0
 spin1final_state 115 -3.26504 0
 spin1final_state 116 -3.26504 0
 spin1final_state 117 -3.21798 0
 spin1final_state 118 -3.13061 0
 spin1final_state 119 -3.1306 0
 spin1final_state 120 -3.04067 0
 spin1final_state 121 -3.04065 0
 spin1final_state 122 -3.02814 0
 spin1final_state 123 -3.02812 0
 spin1final_state 124 -2.90345 0
 spin1final_state 125 -2.89089 0
 spin1final_state 126 -2.89087 0
 spin1final_state 127 -2.79607 0
 spin1final_state 128 -2.76618 0
 spin1final_state 129 -2.76617 0
 spin1final_state 130 -2.68763 0
 spin1final_state 131 -2.57366 0
 spin1final_state 132 -2.57365 0
 spin1final_state 133 -2.55661 0
 spin1final_state 134 -2.38994 0
 spin1final_state 135 -2.31435 0
 spin1final_state 136 -2.31434 0
 spin1final_state 137 -2.30077 0
 spin1final_state 138 -2.30076 0
 spin1final_state 139 -2.26619 0
 spin1final_state 140 -2.26618 0
 spin1final_state 141 -2.13123 0
 spin1final_state 142 -2.05781 0
 spin1final_state 143 -1.98471 0
 spin1final_state 144 -1.93916 0
 spin1final_state 145 -1.87812 0
 spin1final_state 146 -1.79739 0
 spin1final_state 147 -1.79333 0
 spin1final_state 148 -1.79235 0
 spin1final_state 149 -1.71869 0
 spin1final_state 150 -1.71868 0
 spin1final_state 151 -1.58538 0
 spin1final_state 152 -1.53934 0
 spin1final_state 153 -1.53933 0
 spin1final_state 154 -1.49122 0
 spin1final_state 155 -1.46148 0
 spin1final_state 156 -1.46147 0
 spin1final_state 157 -0.706652 0
 spin1final_state 158 -0.65495 0
 spin1final_state 159 -0.654769 0
 spin1final_state 160 -0.611968 0
 spin1final_state 161 -0.611757 0
 spin1final_state 162 -0.583574 0
 spin1final_state 163 -0.583387 0
 spin1final_state 164 -0.547873 0
 spin1final_state 165 -0.547663 0
 spin1final_state 166 -0.536151 0
 spin1final_state 167 -0.0907414 0
 spin1final_state 168 -0.0848798 0
 spin1final_state 169 -0.0684681 0
 spin1final_state 170 -0.0684586 0
 spin1final_state 171 0.100704 0
 spin1final_state 172 0.100716 0
 spin1final_state 173 0.16623 0
 spin1final_state 174 0.166248 0
 spin1final_state 175 0.216154 0
 spin1final_state 176 0.216169 0
 spin1final_state 177 0.295717 0
 spin1final_state 178 0.763293 0
 spin1final_state 179 0.880524 0
 spin1final_state 180 0.972368 0
 spin1final_state 181 0.972397 0
 spin1final_state 182 2.68429 0
 spin1final_state 183 2.69537 0
 spin1final_state 184 2.6954 0
 spin1final_state 185 2.77316 0
 spin1final_state 186 2.77319 0
 spin1final_state 187 2.89686 0
 spin1final_state 188 2.89687 0
 spin1final_state 189 3.00852 0
 spin1final_state 190 3.00855 0
 spin1final_state 191 3.19247 0
 spin1final_state 192 3.25801 0
 spin1final_state 193 3.25803 0
 spin1final_state 194 3.26648 0
 spin1final_state 195 3.29442 0
 spin1final_state 196 3.31625 0
 spin1final_state 197 3.34224 0
 spin1final_state 198 3.34227 0
 spin1final_state 199 3.3558 0
 spin1final_state 200 3.38415 0
 spin1final_state 201 3.41537 0
 spin1final_state 202 3.41539 0
 spin1final_state 203 3.45256 0
 spin1final_state 204 3.45259 0
 spin1final_state 205 3.46001 0
 spin1final_state 206 3.97122 0
 spin1final_state 207 4.08377 0
 spin1final_state 208 4.25962 0
 spin1final_state 209 4.25964 0
 spin1final_state 210 4.26713 0
 spin1final_state 211 4.26715 0
 spin1final_state 212 4.28792 0
 spin1final_state 213 4.28795 0
 spin1final_state 214 4.39048 0
 spin1final_state 215 4.3905 0
 spin1final_state 216 4.75367 0
 spin1final_state 217 4.92403 0

 k-points3(101): 0.146341 0.0844903 0
 spin1final_state 1 -60.2046 0
 spin1final_state 2 -60.2017 0
 spin1final_state 3 -60.1932 0
 spin1final_state 4 -60.1932 0
 spin1final_state 5 -60.1842 0
 spin1final_state 6 -60.1841 0
 spin1final_state 7 -60.1833 0
 spin1final_state 8 -60.1828 0
 spin1final_state 9 -60.1828 0
 spin1final_state 10 -34.4834 0
 spin1final_state 11 -34.449 0
 spin1final_state 12 -34.449 0
 spin1final_state 13 -34.4479 0
 spin1final_state 14 -34.4479 0
 spin1final_state 15 -34.3663 0
 spin1final_state 16 -34.3662 0
 spin1final_state 17 -34.3101 0
 spin1final_state 18 -34.3101 0
 spin1final_state 19 -34.2899 0
 spin1final_state 20 -34.2899 0
 spin1final_state 21 -34.2866 0
 spin1final_state 22 -34.2631 0
 spin1final_state 23 -34.2556 0
 spin1final_state 24 -34.255 0
 spin1final_state 25 -34.2516 0
 spin1final_state 26 -34.2515 0
 spin1final_state 27 -34.2492 0
 spin1final_state 28 -34.2302 0
 spin1final_state 29 -34.2301 0
 spin1final_state 30 -34.2172 0
 spin1final_state 31 -34.21 0
 spin1final_state 32 -34.2096 0
 spin1final_state 33 -34.2095 0
 spin1final_state 34 -34.208 0
 spin1final_state 35 -34.2064 0
 spin1final_state 36 -34.2063 0
 spin1final_state 37 -17.261 0
 spin1final_state 38 -17.0863 0
 spin1final_state 39 -16.4484 0
 spin1final_state 40 -16.4484 0
 spin1final_state 41 -15.1875 0
 spin1final_state 42 -15.1875 0
 spin1final_state 43 -14.8483 0
 spin1final_state 44 -14.8483 0
 spin1final_state 45 -14.5655 0
 spin1final_state 46 -14.0639 0
 spin1final_state 47 -13.0366 0
 spin1final_state 48 -13.0366 0
 spin1final_state 49 -12.9781 0
 spin1final_state 50 -12.8838 0
 spin1final_state 51 -12.8838 0
 spin1final_state 52 -12.8204 0
 spin1final_state 53 -12.3225 0
 spin1final_state 54 -12.3225 0
 spin1final_state 55 -11.7167 0
 spin1final_state 56 -11.7167 0
 spin1final_state 57 -11.6591 0
 spin1final_state 58 -11.6414 0
 spin1final_state 59 -11.6171 0
 spin1final_state 60 -11.6171 0
 spin1final_state 61 -11.5898 0
 spin1final_state 62 -11.4704 0
 spin1final_state 63 -11.4704 0
 spin1final_state 64 -11.4245 0
 spin1final_state 65 -11.4245 0
 spin1final_state 66 -11.2217 0
 spin1final_state 67 -11.2217 0
 spin1final_state 68 -11.2191 0
 spin1final_state 69 -11.1818 0
 spin1final_state 70 -11.1817 0
 spin1final_state 71 -10.4393 0
 spin1final_state 72 -10.4393 0
 spin1final_state 73 -10.3111 0
 spin1final_state 74 -10.3111 0
 spin1final_state 75 -9.88299 0
 spin1final_state 76 -9.88298 0
 spin1final_state 77 -9.17179 0
 spin1final_state 78 -8.41471 0
 spin1final_state 79 -7.8514 0
 spin1final_state 80 -7.85139 0
 spin1final_state 81 -7.27945 0
 spin1final_state 82 -7.27943 0
 spin1final_state 83 -6.92917 0
 spin1final_state 84 -6.92915 0
 spin1final_state 85 -5.76519 0
 spin1final_state 86 -5.76518 0
 spin1final_state 87 -5.34521 0
 spin1final_state 88 -5.3452 0
 spin1final_state 89 -5.29486 0
 spin1final_state 90 -5.08572 0
 spin1final_state 91 -5.07031 0
 spin1final_state 92 -5.07029 0
 spin1final_state 93 -4.82562 0
 spin1final_state 94 -4.51048 0
 spin1final_state 95 -4.51046 0
 spin1final_state 96 -4.47181 0
 spin1final_state 97 -4.47181 0
 spin1final_state 98 -4.40676 0
 spin1final_state 99 -4.36036 0
 spin1final_state 100 -4.36036 0
 spin1final_state 101 -4.35993 0
 spin1final_state 102 -4.35992 0
 spin1final_state 103 -4.33038 0
 spin1final_state 104 -4.33034 0
 spin1final_state 105 -4.28231 0
 spin1final_state 106 -4.26181 0
 spin1final_state 107 -4.16833 0
 spin1final_state 108 -4.16829 0
 spin1final_state 109 -4.09117 0
 spin1final_state 110 -4.07757 0
 spin1final_state 111 -4.07756 0
 spin1final_state 112 -3.85796 0
 spin1final_state 113 -3.85795 0
 spin1final_state 114 -3.67802 0
 spin1final_state 115 -3.2537 0
 spin1final_state 116 -3.2537 0
 spin1final_state 117 -3.21485 0
 spin1final_state 118 -3.13071 0
 spin1final_state 119 -3.1307 0
 spin1final_state 120 -3.04796 0
 spin1final_state 121 -3.04794 0
 spin1final_state 122 -3.02279 0
 spin1final_state 123 -3.02277 0
 spin1final_state 124 -2.95364 0
 spin1final_state 125 -2.89635 0
 spin1final_state 126 -2.89633 0
 spin1final_state 127 -2.85813 0
 spin1final_state 128 -2.85812 0
 spin1final_state 129 -2.84456 0
 spin1final_state 130 -2.74058 0
 spin1final_state 131 -2.55334 0
 spin1final_state 132 -2.47362 0
 spin1final_state 133 -2.47361 0
 spin1final_state 134 -2.33452 0
 spin1final_state 135 -2.33451 0
 spin1final_state 136 -2.29599 0
 spin1final_state 137 -2.29598 0
 spin1final_state 138 -2.25001 0
 spin1final_state 139 -2.23863 0
 spin1final_state 140 -2.23861 0
 spin1final_state 141 -2.20422 0
 spin1final_state 142 -2.18754 0
 spin1final_state 143 -2.01485 0
 spin1final_state 144 -1.91806 0
 spin1final_state 145 -1.91138 0
 spin1final_state 146 -1.81262 0
 spin1final_state 147 -1.81261 0
 spin1final_state 148 -1.74684 0
 spin1final_state 149 -1.72377 0
 spin1final_state 150 -1.6675 0
 spin1final_state 151 -1.63307 0
 spin1final_state 152 -1.45523 0
 spin1final_state 153 -1.45523 0
 spin1final_state 154 -1.45328 0
 spin1final_state 155 -1.45327 0
 spin1final_state 156 -1.44528 0
 spin1final_state 157 -0.704328 0
 spin1final_state 158 -0.679602 0
 spin1final_state 159 -0.679442 0
 spin1final_state 160 -0.601181 0
 spin1final_state 161 -0.601012 0
 spin1final_state 162 -0.593768 0
 spin1final_state 163 -0.593551 0
 spin1final_state 164 -0.541659 0
 spin1final_state 165 -0.530197 0
 spin1final_state 166 -0.529984 0
 spin1final_state 167 -0.101057 0
 spin1final_state 168 -0.0899448 0
 spin1final_state 169 -0.0788385 0
 spin1final_state 170 -0.07883 0
 spin1final_state 171 0.0989228 0
 spin1final_state 172 0.0989351 0
 spin1final_state 173 0.144019 0
 spin1final_state 174 0.144037 0
 spin1final_state 175 0.243994 0
 spin1final_state 176 0.244009 0
 spin1final_state 177 0.286552 0
 spin1final_state 178 0.701028 0
 spin1final_state 179 0.934441 0
 spin1final_state 180 0.935105 0
 spin1final_state 181 0.935189 0
 spin1final_state 182 2.64926 0
 spin1final_state 183 2.64929 0
 spin1final_state 184 2.68582 0
 spin1final_state 185 2.80279 0
 spin1final_state 186 2.80281 0
 spin1final_state 187 2.89805 0
 spin1final_state 188 2.89807 0
 spin1final_state 189 3.04758 0
 spin1final_state 190 3.04761 0
 spin1final_state 191 3.19398 0
 spin1final_state 192 3.25685 0
 spin1final_state 193 3.25687 0
 spin1final_state 194 3.25818 0
 spin1final_state 195 3.28471 0
 spin1final_state 196 3.29636 0
 spin1final_state 197 3.29638 0
 spin1final_state 198 3.33419 0
 spin1final_state 199 3.34561 0
 spin1final_state 200 3.3839 0
 spin1final_state 201 3.43034 0
 spin1final_state 202 3.43035 0
 spin1final_state 203 3.49687 0
 spin1final_state 204 3.51397 0
 spin1final_state 205 3.514 0
 spin1final_state 206 3.9161 0
 spin1final_state 207 4.14057 0
 spin1final_state 208 4.23663 0
 spin1final_state 209 4.23667 0
 spin1final_state 210 4.25662 0
 spin1final_state 211 4.25665 0
 spin1final_state 212 4.27064 0
 spin1final_state 213 4.27066 0
 spin1final_state 214 4.44154 0
 spin1final_state 215 4.44156 0
 spin1final_state 216 4.74689 0
 spin1final_state 217 4.921 0

 k-points4(101): 0.143293 0.0827301 0
 spin1final_state 1 -60.2053 0
 spin1final_state 2 -60.2009 0
 spin1final_state 3 -60.1932 0
 spin1final_state 4 -60.1931 0
 spin1final_state 5 -60.1845 0
 spin1final_state 6 -60.1845 0
 spin1final_state 7 -60.1834 0
 spin1final_state 8 -60.1825 0
 spin1final_state 9 -60.1825 0
 spin1final_state 10 -34.482 0
 spin1final_state 11 -34.4484 0
 spin1final_state 12 -34.4484 0
 spin1final_state 13 -34.4469 0
 spin1final_state 14 -34.4469 0
 spin1final_state 15 -34.3676 0
 spin1final_state 16 -34.3676 0
 spin1final_state 17 -34.3154 0
 spin1final_state 18 -34.3154 0
 spin1final_state 19 -34.2951 0
 spin1final_state 20 -34.2852 0
 spin1final_state 21 -34.2852 0
 spin1final_state 22 -34.2628 0
 spin1final_state 23 -34.2571 0
 spin1final_state 24 -34.2511 0
 spin1final_state 25 -34.2511 0
 spin1final_state 26 -34.2478 0
 spin1final_state 27 -34.2474 0
 spin1final_state 28 -34.23 0
 spin1final_state 29 -34.23 0
 spin1final_state 30 -34.2192 0
 spin1final_state 31 -34.2105 0
 spin1final_state 32 -34.2104 0
 spin1final_state 33 -34.2084 0
 spin1final_state 34 -34.2083 0
 spin1final_state 35 -34.2057 0
 spin1final_state 36 -34.2056 0
 spin1final_state 37 -17.2982 0
 spin1final_state 38 -17.0362 0
 spin1final_state 39 -16.4419 0
 spin1final_state 40 -16.4419 0
 spin1final_state 41 -15.2663 0
 spin1final_state 42 -15.2663 0
 spin1final_state 43 -14.7576 0
 spin1final_state 44 -14.7575 0
 spin1final_state 45 -14.6856 0
 spin1final_state 46 -13.9336 0
 spin1final_state 47 -13.0697 0
 spin1final_state 48 -13.0697 0
 spin1final_state 49 -13.0129 0
 spin1final_state 50 -12.841 0
 spin1final_state 51 -12.841 0
 spin1final_state 52 -12.7769 0
 spin1final_state 53 -12.3184 0
 spin1final_state 54 -12.3184 0
 spin1final_state 55 -11.7434 0
 spin1final_state 56 -11.7434 0
 spin1final_state 57 -11.6687 0
 spin1final_state 58 -11.6528 0
 spin1final_state 59 -11.5945 0
 spin1final_state 60 -11.5945 0
 spin1final_state 61 -11.5756 0
 spin1final_state 62 -11.5663 0
 spin1final_state 63 -11.5663 0
 spin1final_state 64 -11.4234 0
 spin1final_state 65 -11.4234 0
 spin1final_state 66 -11.232 0
 spin1final_state 67 -11.232 0
 spin1final_state 68 -11.2221 0
 spin1final_state 69 -11.1724 0
 spin1final_state 70 -11.1724 0
 spin1final_state 71 -10.4137 0
 spin1final_state 72 -10.4137 0
 spin1final_state 73 -10.3406 0
 spin1final_state 74 -10.3406 0
 spin1final_state 75 -9.77294 0
 spin1final_state 76 -9.77293 0
 spin1final_state 77 -9.35708 0
 spin1final_state 78 -8.2221 0
 spin1final_state 79 -7.83947 0
 spin1final_state 80 -7.83946 0
 spin1final_state 81 -7.36504 0
 spin1final_state 82 -7.36502 0
 spin1final_state 83 -6.83928 0
[...]
 spin1final_state 205 4.14209 0
 spin1final_state 206 4.14248 0
 spin1final_state 207 4.15101 0
 spin1final_state 208 4.15214 0
 spin1final_state 209 4.27447 0
 spin1final_state 210 4.27698 0
 spin1final_state 211 4.28458 0
 spin1final_state 212 4.28467 0
 spin1final_state 213 4.49996 0
 spin1final_state 214 4.68594 0
 spin1final_state 215 4.68605 0
 spin1final_state 216 4.78529 0
 spin1final_state 217 4.7854 0

 k-points100(101): 0.0995935 0.172501 0
 spin1final_state 1 -60.2099 0
 spin1final_state 2 -60.1906 0
 spin1final_state 3 -60.1905 0
 spin1final_state 4 -60.1898 0
 spin1final_state 5 -60.1897 0
 spin1final_state 6 -60.1891 0
 spin1final_state 7 -60.189 0
 spin1final_state 8 -60.1805 0
 spin1final_state 9 -60.1805 0
 spin1final_state 10 -34.4217 0
 spin1final_state 11 -34.4216 0
 spin1final_state 12 -34.4191 0
 spin1final_state 13 -34.4191 0
 spin1final_state 14 -34.4141 0
 spin1final_state 15 -34.414 0
 spin1final_state 16 -34.4062 0
 spin1final_state 17 -34.4062 0
 spin1final_state 18 -34.3736 0
 spin1final_state 19 -34.3735 0
 spin1final_state 20 -34.2672 0
 spin1final_state 21 -34.2486 0
 spin1final_state 22 -34.2486 0
 spin1final_state 23 -34.247 0
 spin1final_state 24 -34.247 0
 spin1final_state 25 -34.245 0
 spin1final_state 26 -34.245 0
 spin1final_state 27 -34.2244 0
 spin1final_state 28 -34.2244 0
 spin1final_state 29 -34.2227 0
 spin1final_state 30 -34.2227 0
 spin1final_state 31 -34.2212 0
 spin1final_state 32 -34.2211 0
 spin1final_state 33 -34.2006 0
 spin1final_state 34 -34.2005 0
 spin1final_state 35 -34.1972 0
 spin1final_state 36 -34.1969 0
 spin1final_state 37 -17.5417 0
 spin1final_state 38 -16.1776 0
 spin1final_state 39 -16.1774 0
 spin1final_state 40 -16.0911 0
 spin1final_state 41 -16.0911 0
 spin1final_state 42 -16.0049 0
 spin1final_state 43 -16.0047 0
 spin1final_state 44 -13.4528 0
 spin1final_state 45 -13.3716 0
 spin1final_state 46 -13.3716 0
 spin1final_state 47 -13.2517 0
 spin1final_state 48 -13.2098 0
 spin1final_state 49 -13.2098 0
 spin1final_state 50 -13.1294 0
 spin1final_state 51 -12.3409 0
 spin1final_state 52 -12.3409 0
 spin1final_state 53 -12.3137 0
 spin1final_state 54 -12.16 0
 spin1final_state 55 -12.1599 0
 spin1final_state 56 -12.1114 0
 spin1final_state 57 -12.1113 0
 spin1final_state 58 -12.0656 0
 spin1final_state 59 -12.0655 0
 spin1final_state 60 -11.7307 0
 spin1final_state 61 -11.4348 0
 spin1final_state 62 -11.4348 0
 spin1final_state 63 -11.376 0
 spin1final_state 64 -11.376 0
 spin1final_state 65 -11.3605 0
 spin1final_state 66 -11.3605 0
 spin1final_state 67 -11.346 0
 spin1final_state 68 -11.346 0
 spin1final_state 69 -11.3418 0
 spin1final_state 70 -11.3148 0
 spin1final_state 71 -11.3148 0
 spin1final_state 72 -11.1023 0
 spin1final_state 73 -11.1023 0
 spin1final_state 74 -8.74845 0
 spin1final_state 75 -8.68871 0
 spin1final_state 76 -8.68866 0
 spin1final_state 77 -8.54309 0
 spin1final_state 78 -8.54307 0
 spin1final_state 79 -8.45752 0
 spin1final_state 80 -7.21955 0
 spin1final_state 81 -7.13837 0
 spin1final_state 82 -7.13819 0
 spin1final_state 83 -6.9989 0
 spin1final_state 84 -6.99868 0
 spin1final_state 85 -6.94014 0
 spin1final_state 86 -5.72676 0
 spin1final_state 87 -5.72656 0
 spin1final_state 88 -5.63224 0
 spin1final_state 89 -5.52973 0
 spin1final_state 90 -5.52973 0
 spin1final_state 91 -5.33344 0
 spin1final_state 92 -5.33324 0
 spin1final_state 93 -4.69017 0
 spin1final_state 94 -4.55063 0
 spin1final_state 95 -4.54334 0
 spin1final_state 96 -4.54334 0
 spin1final_state 97 -4.49265 0
 spin1final_state 98 -4.4926 0
 spin1final_state 99 -4.48131 0
 spin1final_state 100 -4.48129 0
 spin1final_state 101 -4.44255 0
 spin1final_state 102 -4.44253 0
 spin1final_state 103 -4.40594 0
 spin1final_state 104 -4.40591 0
 spin1final_state 105 -4.0078 0
 spin1final_state 106 -4.0076 0
 spin1final_state 107 -3.90731 0
 spin1final_state 108 -3.90731 0
 spin1final_state 109 -3.80735 0
 spin1final_state 110 -3.80716 0
 spin1final_state 111 -3.6695 0
 spin1final_state 112 -3.66946 0
 spin1final_state 113 -3.25118 0
 spin1final_state 114 -3.25114 0
 spin1final_state 115 -3.23703 0
 spin1final_state 116 -3.23703 0
 spin1final_state 117 -3.18878 0
 spin1final_state 118 -3.18751 0
 spin1final_state 119 -3.18459 0
 spin1final_state 120 -3.18458 0
 spin1final_state 121 -3.18228 0
 spin1final_state 122 -3.18228 0
 spin1final_state 123 -3.13353 0
 spin1final_state 124 -3.13352 0
 spin1final_state 125 -3.12162 0
 spin1final_state 126 -3.12157 0
 spin1final_state 127 -3.12117 0
 spin1final_state 128 -3.12116 0
 spin1final_state 129 -3.11844 0
 spin1final_state 130 -3.11844 0
 spin1final_state 131 -3.1011 0
 spin1final_state 132 -3.10106 0
 spin1final_state 133 -2.81145 0
 spin1final_state 134 -2.81016 0
 spin1final_state 135 -2.29843 0
 spin1final_state 136 -2.29842 0
 spin1final_state 137 -2.26711 0
 spin1final_state 138 -2.26708 0
 spin1final_state 139 -2.23103 0
 spin1final_state 140 -2.23102 0
 spin1final_state 141 -2.22103 0
 spin1final_state 142 -2.21507 0
 spin1final_state 143 -1.87176 0
 spin1final_state 144 -1.87171 0
 spin1final_state 145 -1.16799 0
 spin1final_state 146 -1.16461 0
 spin1final_state 147 -1.05987 0
 spin1final_state 148 -1.04974 0
 spin1final_state 149 -1.04329 0
 spin1final_state 150 -1.04302 0
 spin1final_state 151 -1.04295 0
 spin1final_state 152 -1.04262 0
 spin1final_state 153 -0.997244 0
 spin1final_state 154 -0.997214 0
 spin1final_state 155 -0.94585 0
 spin1final_state 156 -0.945843 0
 spin1final_state 157 -0.915084 0
 spin1final_state 158 -0.83197 0
 spin1final_state 159 -0.82745 0
 spin1final_state 160 -0.659077 0
 spin1final_state 161 -0.656537 0
 spin1final_state 162 -0.57187 0
 spin1final_state 163 -0.524425 0
 spin1final_state 164 -0.516097 0
 spin1final_state 165 -0.515991 0
 spin1final_state 166 -0.489584 0
 spin1final_state 167 -0.487254 0
 spin1final_state 168 -0.464068 0
 spin1final_state 169 -0.46396 0
 spin1final_state 170 -0.374053 0
 spin1final_state 171 -0.373916 0
 spin1final_state 172 -0.363727 0
 spin1final_state 173 -0.0105023 0
 spin1final_state 174 -0.0104889 0
 spin1final_state 175 -0.00568932 0
 spin1final_state 176 -0.00540435 0
 spin1final_state 177 0.00657253 0
 spin1final_state 178 0.00658214 0
 spin1final_state 179 0.648246 0
 spin1final_state 180 0.648526 0
 spin1final_state 181 1.28905 0
 spin1final_state 182 2.03095 0
 spin1final_state 183 2.03121 0
 spin1final_state 184 2.83558 0
 spin1final_state 185 2.8356 0
 spin1final_state 186 2.85779 0
 spin1final_state 187 2.85784 0
 spin1final_state 188 2.88206 0
 spin1final_state 189 2.88208 0
 spin1final_state 190 3.2259 0
 spin1final_state 191 3.22593 0
 spin1final_state 192 3.22678 0
 spin1final_state 193 3.22681 0
 spin1final_state 194 3.22769 0
 spin1final_state 195 3.2277 0
 spin1final_state 196 3.43306 0
 spin1final_state 197 3.4395 0
 spin1final_state 198 3.79421 0
 spin1final_state 199 3.80315 0
 spin1final_state 200 3.80553 0
 spin1final_state 201 3.80579 0
 spin1final_state 202 3.80586 0
 spin1final_state 203 4.10233 0
 spin1final_state 204 4.10234 0
 spin1final_state 205 4.16126 0
 spin1final_state 206 4.16168 0
 spin1final_state 207 4.16796 0
 spin1final_state 208 4.1681 0
 spin1final_state 209 4.22896 0
 spin1final_state 210 4.22899 0
 spin1final_state 211 4.27494 0
 spin1final_state 212 4.27527 0
 spin1final_state 213 4.69536 0
 spin1final_state 214 4.79133 0
 spin1final_state 215 4.79139 0
 spin1final_state 216 4.81928 0
 spin1final_state 217 4.81949 0

 k-points101(101): 0.101626 0.176021 0
 spin1final_state 1 -60.21 0
 spin1final_state 2 -60.1899 0
 spin1final_state 3 -60.1899 0
 spin1final_state 4 -60.1899 0
 spin1final_state 5 -60.1897 0
 spin1final_state 6 -60.1897 0
 spin1final_state 7 -60.1896 0
 spin1final_state 8 -60.1805 0
 spin1final_state 9 -60.1804 0
 spin1final_state 10 -34.4185 0
 spin1final_state 11 -34.4185 0
 spin1final_state 12 -34.4142 0
 spin1final_state 13 -34.4141 0
 spin1final_state 14 -34.4141 0
 spin1final_state 15 -34.4141 0
 spin1final_state 16 -34.414 0
 spin1final_state 17 -34.414 0
 spin1final_state 18 -34.3744 0
 spin1final_state 19 -34.3744 0
 spin1final_state 20 -34.2673 0
 spin1final_state 21 -34.2469 0
 spin1final_state 22 -34.2468 0
 spin1final_state 23 -34.2468 0
 spin1final_state 24 -34.2467 0
 spin1final_state 25 -34.2467 0
 spin1final_state 26 -34.2466 0
 spin1final_state 27 -34.2229 0
 spin1final_state 28 -34.2228 0
 spin1final_state 29 -34.2228 0
 spin1final_state 30 -34.2227 0
 spin1final_state 31 -34.2227 0
 spin1final_state 32 -34.2225 0
 spin1final_state 33 -34.2006 0
 spin1final_state 34 -34.2005 0
 spin1final_state 35 -34.1968 0
 spin1final_state 36 -34.1968 0
 spin1final_state 37 -17.5434 0
 spin1final_state 38 -16.093 0
 spin1final_state 39 -16.093 0
 spin1final_state 40 -16.093 0
 spin1final_state 41 -16.0928 0
 spin1final_state 42 -16.0928 0
 spin1final_state 43 -16.0927 0
 spin1final_state 44 -13.2922 0
 spin1final_state 45 -13.2922 0
 spin1final_state 46 -13.2922 0
 spin1final_state 47 -13.2922 0
 spin1final_state 48 -13.2922 0
 spin1final_state 49 -13.2921 0
 spin1final_state 50 -13.2535 0
 spin1final_state 51 -12.3152 0
 spin1final_state 52 -12.3152 0
 spin1final_state 53 -12.3152 0
 spin1final_state 54 -12.1125 0
 spin1final_state 55 -12.1125 0
 spin1final_state 56 -12.1125 0
 spin1final_state 57 -12.1124 0
 spin1final_state 58 -12.1124 0
 spin1final_state 59 -12.1124 0
 spin1final_state 60 -11.7313 0
 spin1final_state 61 -11.4336 0
 spin1final_state 62 -11.4336 0
 spin1final_state 63 -11.361 0
 spin1final_state 64 -11.361 0
 spin1final_state 65 -11.3609 0
 spin1final_state 66 -11.3609 0
 spin1final_state 67 -11.3609 0
 spin1final_state 68 -11.3609 0
 spin1final_state 69 -11.3433 0
 spin1final_state 70 -11.3433 0
 spin1final_state 71 -11.3433 0
 spin1final_state 72 -11.1018 0
 spin1final_state 73 -11.1018 0
 spin1final_state 74 -8.60432 0
 spin1final_state 75 -8.60432 0
 spin1final_state 76 -8.60428 0
 spin1final_state 77 -8.60428 0
 spin1final_state 78 -8.60426 0
 spin1final_state 79 -8.60426 0
 spin1final_state 80 -7.08129 0
 spin1final_state 81 -7.08129 0
 spin1final_state 82 -7.08102 0
 spin1final_state 83 -7.08102 0
 spin1final_state 84 -7.08094 0
 spin1final_state 85 -7.08094 0
 spin1final_state 86 -5.63435 0
 spin1final_state 87 -5.52981 0
 spin1final_state 88 -5.52971 0
 spin1final_state 89 -5.5297 0
 spin1final_state 90 -5.5295 0
 spin1final_state 91 -5.52949 0
 spin1final_state 92 -5.5294 0
 spin1final_state 93 -4.69218 0
 spin1final_state 94 -4.54267 0
 spin1final_state 95 -4.54267 0
 spin1final_state 96 -4.54265 0
 spin1final_state 97 -4.49545 0
 spin1final_state 98 -4.49544 0
 spin1final_state 99 -4.44381 0
 spin1final_state 100 -4.44381 0
 spin1final_state 101 -4.4438 0
 spin1final_state 102 -4.44376 0
 spin1final_state 103 -4.44376 0
 spin1final_state 104 -4.44375 0
 spin1final_state 105 -3.90953 0
 spin1final_state 106 -3.90946 0
 spin1final_state 107 -3.90946 0
 spin1final_state 108 -3.90925 0
 spin1final_state 109 -3.90925 0
 spin1final_state 110 -3.90914 0
 spin1final_state 111 -3.65185 0
 spin1final_state 112 -3.65184 0
 spin1final_state 113 -3.20353 0
 spin1final_state 114 -3.20353 0
 spin1final_state 115 -3.18248 0
 spin1final_state 116 -3.18247 0
 spin1final_state 117 -3.18244 0
 spin1final_state 118 -3.18243 0
 spin1final_state 119 -3.1824 0
 spin1final_state 120 -3.1824 0
 spin1final_state 121 -3.17495 0
 spin1final_state 122 -3.17493 0
 spin1final_state 123 -3.17492 0
 spin1final_state 124 -3.17489 0
 spin1final_state 125 -3.17488 0
 spin1final_state 126 -3.17486 0
 spin1final_state 127 -3.12251 0
 spin1final_state 128 -3.12247 0
 spin1final_state 129 -3.12246 0
 spin1final_state 130 -3.12241 0
 spin1final_state 131 -3.12241 0
 spin1final_state 132 -3.12239 0
 spin1final_state 133 -2.81646 0
 spin1final_state 134 -2.81646 0
 spin1final_state 135 -2.26513 0
 spin1final_state 136 -2.26511 0
 spin1final_state 137 -2.26511 0
 spin1final_state 138 -2.26507 0
 spin1final_state 139 -2.26502 0
 spin1final_state 140 -2.26502 0
 spin1final_state 141 -2.217 0
 spin1final_state 142 -2.21699 0
 spin1final_state 143 -1.86739 0
 spin1final_state 144 -1.86739 0
 spin1final_state 145 -1.16067 0
 spin1final_state 146 -1.16063 0
 spin1final_state 147 -1.04681 0
 spin1final_state 148 -1.04677 0
 spin1final_state 149 -1.0462 0
 spin1final_state 150 -1.0462 0
 spin1final_state 151 -0.992541 0
 spin1final_state 152 -0.992525 0
 spin1final_state 153 -0.992516 0
 spin1final_state 154 -0.992474 0
 spin1final_state 155 -0.992471 0
 spin1final_state 156 -0.992466 0
 spin1final_state 157 -0.746545 0
 spin1final_state 158 -0.746518 0
 spin1final_state 159 -0.746202 0
 spin1final_state 160 -0.746202 0
 spin1final_state 161 -0.741558 0
 spin1final_state 162 -0.741558 0
 spin1final_state 163 -0.535453 0
 spin1final_state 164 -0.492507 0
 spin1final_state 165 -0.492497 0
 spin1final_state 166 -0.4923 0
 spin1final_state 167 -0.490175 0
 spin1final_state 168 -0.490155 0
 spin1final_state 169 -0.490118 0
 spin1final_state 170 -0.366048 0
 spin1final_state 171 -0.365873 0
 spin1final_state 172 -0.365863 0
 spin1final_state 173 -0.00583482 0
 spin1final_state 174 -0.00581305 0
 spin1final_state 175 -0.0057584 0
 spin1final_state 176 -0.00555596 0
 spin1final_state 177 -0.00550947 0
 spin1final_state 178 -0.00544617 0
 spin1final_state 179 0.653393 0
 spin1final_state 180 0.653394 0
 spin1final_state 181 1.29093 0
 spin1final_state 182 2.02428 0
 spin1final_state 183 2.02433 0
 spin1final_state 184 2.85797 0
 spin1final_state 185 2.85798 0
 spin1final_state 186 2.85801 0
 spin1final_state 187 2.85805 0
 spin1final_state 188 2.85807 0
 spin1final_state 189 2.85811 0
 spin1final_state 190 3.22695 0
 spin1final_state 191 3.22696 0
 spin1final_state 192 3.22698 0
 spin1final_state 193 3.22703 0
 spin1final_state 194 3.22705 0
 spin1final_state 195 3.2271 0
 spin1final_state 196 3.43594 0
 spin1final_state 197 3.43598 0
 spin1final_state 198 3.79483 0
 spin1final_state 199 3.79485 0
 spin1final_state 200 3.79493 0
 spin1final_state 201 3.80775 0
 spin1final_state 202 3.80777 0
 spin1final_state 203 4.1679 0
 spin1final_state 204 4.16791 0
 spin1final_state 205 4.16795 0
 spin1final_state 206 4.16837 0
 spin1final_state 207 4.16844 0
 spin1final_state 208 4.16846 0
 spin1final_state 209 4.17356 0
 spin1final_state 210 4.17356 0
 spin1final_state 211 4.27484 0
 spin1final_state 212 4.27494 0
 spin1final_state 213 4.85188 0
 spin1final_state 214 4.85241 0
 spin1final_state 215 4.85243 0
 spin1final_state 216 4.85386 0
 spin1final_state 217 4.85388 0



 --------------------------------------------
 !FINAL_ETOT_IS 0 eV
 --------------------------------------------






 >>>>>>>>>>>>>>>>>>>>>>>>>>>>>>>>>>>>>>>>>>>>>>>>>>>>>>>>>>>>>>>>>>>>>>
 |                                                                    |
 | Post-processing of data:                                           |
 | DOS (density of states) and bands will be output here.             |
 | If atomic orbitals are used, Mulliken charge analysis can be done. |
 | Also the .bxsf file containing fermi surface information can be    |
 | done here.                                                         |
 |                                                                    |
 <<<<<<<<<<<<<<<<<<<<<<<<<<<<<<<<<<<<<<<<<<<<<<<<<<<<<<<<<<<<<<<<<<<<<<





 Output bands in file: OUT.ABACUS/BANDS_1.dat




  |CLASS_NAME---------|NAME---------------|TIME(Sec)-----|CALLS----|AVG------|PER%-------
                                      total         111.53         5        22     1e+02%
                 Driver         driver_line          111.5         1   1.1e+02     1e+02%
               PW_Basis  setup_struc_factor        0.12632         1      0.13      0.11%
            ORB_control      read_orb_first        0.21833         1      0.22       0.2%
          LCAO_Orbitals       Read_Orbitals        0.21833         1      0.22       0.2%
            ORB_control      set_orb_tables         23.825         1        24        21%
         ORB_gen_tables          gen_tables         23.825         1        24        21%
          ORB_table_phi          init_Table         17.553         1        18        16%
          ORB_table_phi      cal_ST_Phi12_R         17.498       694     0.025        16%
         ORB_table_beta     init_Table_Beta         5.7857         1       5.8       5.2%
         ORB_table_beta       VNL_PhiBeta_R         5.7677       364     0.016       5.2%
              ppcell_vl           init_vloc        0.61805         1      0.62      0.55%
        ESolver_KS_LCAO    othercalculation         86.301         1        86        77%
        ESolver_KS_LCAO        beforesolver        0.63895         1      0.64      0.57%
        ESolver_KS_LCAO     set_matrix_grid        0.34652         1      0.35      0.31%
         Grid_Technique                init        0.28688         1      0.29      0.26%
              Potential            init_pot        0.47999         1      0.48      0.43%
              Potential  update_from_charge        0.47999         1      0.48      0.43%
               PW_Basis          recip2real        0.17895         6      0.03      0.16%
              Potential           cal_v_eff        0.44707         1      0.45       0.4%
               PW_Basis          real2recip        0.16231         6     0.027      0.15%
                  PotXC           cal_v_eff        0.37307         1      0.37      0.33%
          XC_Functional                v_xc          0.367         1      0.37      0.33%
            HSolverLCAO               solve         83.594         1        84        75%
             HamiltLCAO            updateHk         9.7466       101     0.097       8.7%
           OperatorLCAO                init          9.746       303     0.032       8.7%
                   Veff        contributeHk         6.6216       101     0.066       5.9%
         Gint_interface            cal_gint        0.29071         1      0.29      0.26%
         Gint_interface     cal_gint_vlocal        0.29071         1      0.29      0.26%
                 Gint_k        folding_vl_k         6.3303       101     0.063       5.7%
                 Gint_k              Distri         6.1213       101     0.061       5.5%
   Nonlocal<OperatorLCAO>        contributeHR        0.17424         1      0.17      0.16%
        LCAO_gen_fixedHbuild_Nonlocal_mu_new        0.17379         1      0.17      0.16%
           OperatorLCAO       folding_fixed         2.7822       101     0.028       2.5%
               LCAO_nnr      folding_fixedH         2.3807       101     0.024       2.1%
            HSolverLCAO     hamiltSolvePsiK         36.363       101      0.36        33%
              DiagoElpa          elpa_solve         35.716       101      0.35        32%
      Local_Orbital_wfc      wfc_2d_to_grid         37.482       101      0.37        34%
               WF_Local  write_lowf_complex          37.05       101      0.37        33%
 ----------------------------------------------------------------------------------------

 CLASS_NAME---------|NAME---------------|MEMORY(MB)--------
                                         3.209e+04
        ORB_table_phi               Jl(x)          142.9
        ORB_table_phi         Table_SR&TR          6.432
        Grid_Meshcell        index2normal          4.989
        Grid_Meshcell         index2ucell          4.989
    LocalOrbital_Coef          wfc_k_grid          2.957
    Local_Orbital_wfc                ctot          2.957
        allocate_pvpR        pvpR_reduced          2.764
  LocalOrbital_Charge      Density_Matrix          2.764
       ORB_table_beta            Table_NR          2.442
             PW_Basis           struc_fac          2.033
        init_meshball        meshball_pos          1.182
 ----------------------------------------------------------

 Start  Time  : Thu Nov 14 19:56:32 2024
 Finish Time  : Thu Nov 14 19:58:24 2024
 Total  Time  : 0 h 1 mins 52 secs 
