  51  51   0   0
  0.5138078E+02  0.1230000E-08  0.1230000E-08  0.2000000E-08  0.5000000E-15
  1.000000000000000E-004
  CAR 
                                         
      5.36881857    -33.50740570  301     -3.01708186      1.00000000
    -33.507  0.0000E+00  0.0000E+00
    -33.378  0.0000E+00  0.0000E+00
    -33.248  0.0000E+00  0.0000E+00
    -33.119  0.0000E+00  0.0000E+00
    -32.989  0.0000E+00  0.0000E+00
    -32.859  0.0000E+00  0.0000E+00
    -32.730  0.0000E+00  0.0000E+00
    -32.600  0.0000E+00  0.0000E+00
    -32.471  0.0000E+00  0.0000E+00
    -32.341  0.0000E+00  0.0000E+00
    -32.212  0.0000E+00  0.0000E+00
    -32.082  0.0000E+00  0.0000E+00
    -31.952  0.1532E-07  0.1985E-08
    -31.823  0.1513E+00  0.1961E-01
    -31.693  0.1387E+02  0.1817E+01
    -31.564  0.1412E+01  0.2000E+01
    -31.434  0.4498E-05  0.2000E+01
    -31.304  0.0000E+00  0.2000E+01
    -31.175  0.0000E+00  0.2000E+01
    -31.045  0.0000E+00  0.2000E+01
    -30.916  0.0000E+00  0.2000E+01
    -30.786  0.0000E+00  0.2000E+01
    -30.656  0.0000E+00  0.2000E+01
    -30.527  0.0000E+00  0.2000E+01
    -30.397  0.0000E+00  0.2000E+01
    -30.268  0.0000E+00  0.2000E+01
    -30.138  0.0000E+00  0.2000E+01
    -30.009  0.0000E+00  0.2000E+01
    -29.879  0.0000E+00  0.2000E+01
    -29.749  0.0000E+00  0.2000E+01
    -29.620  0.0000E+00  0.2000E+01
    -29.490  0.0000E+00  0.2000E+01
    -29.361  0.0000E+00  0.2000E+01
    -29.231  0.0000E+00  0.2000E+01
    -29.101  0.0000E+00  0.2000E+01
    -28.972  0.0000E+00  0.2000E+01
    -28.842  0.0000E+00  0.2000E+01
    -28.713  0.0000E+00  0.2000E+01
    -28.583  0.0000E+00  0.2000E+01
    -28.453  0.0000E+00  0.2000E+01
    -28.324  0.0000E+00  0.2000E+01
    -28.194  0.0000E+00  0.2000E+01
    -28.065  0.0000E+00  0.2000E+01
    -27.935  0.0000E+00  0.2000E+01
    -27.806  0.0000E+00  0.2000E+01
    -27.676  0.0000E+00  0.2000E+01
    -27.546  0.0000E+00  0.2000E+01
    -27.417  0.0000E+00  0.2000E+01
    -27.287  0.0000E+00  0.2000E+01
    -27.158  0.0000E+00  0.2000E+01
    -27.028  0.0000E+00  0.2000E+01
    -26.898  0.0000E+00  0.2000E+01
    -26.769  0.0000E+00  0.2000E+01
    -26.639  0.0000E+00  0.2000E+01
    -26.510  0.0000E+00  0.2000E+01
    -26.380  0.0000E+00  0.2000E+01
    -26.251  0.0000E+00  0.2000E+01
    -26.121  0.0000E+00  0.2000E+01
    -25.991  0.0000E+00  0.2000E+01
    -25.862  0.0000E+00  0.2000E+01
    -25.732  0.0000E+00  0.2000E+01
    -25.603  0.0000E+00  0.2000E+01
    -25.473  0.0000E+00  0.2000E+01
    -25.343  0.0000E+00  0.2000E+01
    -25.214  0.0000E+00  0.2000E+01
    -25.084  0.0000E+00  0.2000E+01
    -24.955  0.0000E+00  0.2000E+01
    -24.825  0.0000E+00  0.2000E+01
    -24.695  0.0000E+00  0.2000E+01
    -24.566  0.0000E+00  0.2000E+01
    -24.436  0.0000E+00  0.2000E+01
    -24.307  0.0000E+00  0.2000E+01
    -24.177  0.0000E+00  0.2000E+01
    -24.048  0.0000E+00  0.2000E+01
    -23.918  0.0000E+00  0.2000E+01
    -23.788  0.0000E+00  0.2000E+01
    -23.659  0.0000E+00  0.2000E+01
    -23.529  0.0000E+00  0.2000E+01
    -23.400  0.0000E+00  0.2000E+01
    -23.270  0.0000E+00  0.2000E+01
    -23.140  0.0000E+00  0.2000E+01
    -23.011  0.0000E+00  0.2000E+01
    -22.881  0.0000E+00  0.2000E+01
    -22.752  0.0000E+00  0.2000E+01
    -22.622  0.0000E+00  0.2000E+01
    -22.492  0.3220E-09  0.2000E+01
    -22.363  0.8030E-02  0.2001E+01
    -22.233  0.2540E+01  0.2330E+01
    -22.104  0.1026E+02  0.3660E+01
    -21.974  0.5478E+01  0.4370E+01
    -21.845  0.8760E+01  0.5505E+01
    -21.715  0.6175E+01  0.6305E+01
    -21.585  0.9523E+01  0.7539E+01
    -21.456  0.8457E+01  0.8635E+01
    -21.326  0.1039E+02  0.9982E+01
    -21.197  0.1306E+01  0.1015E+02
    -21.067  0.7511E+01  0.1112E+02
    -20.937  0.9898E+01  0.1241E+02
    -20.808  0.1386E+02  0.1420E+02
    -20.678  0.9595E+01  0.1545E+02
    -20.549  0.8464E+00  0.1556E+02
    -20.419  0.6783E+01  0.1643E+02
    -20.289  0.1009E+02  0.1774E+02
    -20.160  0.1030E+02  0.1908E+02
    -20.030  0.1055E+02  0.2044E+02
    -19.901  0.8592E+00  0.2056E+02
    -19.771  0.9703E+01  0.2181E+02
    -19.642  0.1300E+02  0.2350E+02
    -19.512  0.7938E+01  0.2453E+02
    -19.382  0.1672E+01  0.2474E+02
    -19.253  0.1360E+02  0.2650E+02
    -19.123  0.8486E+01  0.2760E+02
    -18.994  0.9654E+01  0.2885E+02
    -18.864  0.3675E+01  0.2933E+02
    -18.734  0.3613E+01  0.2980E+02
    -18.605  0.1138E+02  0.3127E+02
    -18.475  0.1053E+02  0.3264E+02
    -18.346  0.1293E+02  0.3431E+02
    -18.216  0.4476E+01  0.3489E+02
    -18.087  0.1118E+02  0.3634E+02
    -17.957  0.1015E+02  0.3766E+02
    -17.827  0.5054E+01  0.3831E+02
    -17.698  0.2752E+01  0.3867E+02
    -17.568  0.1067E+02  0.4005E+02
    -17.439  0.1284E+02  0.4172E+02
    -17.309  0.6839E+01  0.4260E+02
    -17.179  0.1853E+02  0.4500E+02
    -17.050  0.6617E+01  0.4586E+02
    -16.920  0.3048E+01  0.4626E+02
    -16.791  0.9591E+01  0.4750E+02
    -16.661  0.5282E+01  0.4818E+02
    -16.531  0.7791E+01  0.4919E+02
    -16.402  0.8909E+01  0.5035E+02
    -16.272  0.2958E+01  0.5073E+02
    -16.143  0.9749E+01  0.5199E+02
    -16.013  0.5963E+01  0.5277E+02
    -15.884  0.1285E+02  0.5443E+02
    -15.754  0.1185E+02  0.5597E+02
    -15.624  0.2142E+01  0.5625E+02
    -15.495  0.4178E+01  0.5679E+02
    -15.365  0.2807E+01  0.5715E+02
    -15.236  0.1009E+02  0.5846E+02
    -15.106  0.2182E+02  0.6129E+02
    -14.976  0.5297E+01  0.6197E+02
    -14.847  0.1110E+02  0.6341E+02
    -14.717  0.1119E+02  0.6486E+02
    -14.588  0.6559E+01  0.6571E+02
    -14.458  0.1277E+02  0.6737E+02
    -14.328  0.8322E+01  0.6844E+02
    -14.199  0.3818E+00  0.6849E+02
    -14.069  0.4700E+01  0.6910E+02
    -13.940  0.6839E+01  0.6999E+02
    -13.810  0.1474E+02  0.7190E+02
    -13.681  0.2264E+02  0.7483E+02
    -13.551  0.2337E+01  0.7514E+02
    -13.421  0.3173E+01  0.7555E+02
    -13.292  0.9940E-01  0.7556E+02
    -13.162  0.8722E+01  0.7669E+02
    -13.033  0.1362E+02  0.7845E+02
    -12.903  0.1870E+02  0.8088E+02
    -12.773  0.6947E+01  0.8178E+02
    -12.644  0.5414E+00  0.8185E+02
    -12.514  0.1865E+02  0.8427E+02
    -12.385  0.1056E+02  0.8563E+02
    -12.255  0.6210E+01  0.8644E+02
    -12.125  0.2000E+01  0.8670E+02
    -11.996  0.1250E+02  0.8832E+02
    -11.866  0.3102E+01  0.8872E+02
    -11.737  0.1048E+02  0.9008E+02
    -11.607  0.2085E+02  0.9278E+02
    -11.478  0.1269E+02  0.9442E+02
    -11.348  0.9442E+01  0.9565E+02
    -11.218  0.9468E+01  0.9687E+02
    -11.089  0.8595E+01  0.9799E+02
    -10.959  0.3545E+01  0.9845E+02
    -10.830  0.2129E+02  0.1012E+03
    -10.700  0.7835E+01  0.1022E+03
    -10.570  0.8623E+01  0.1033E+03
    -10.441  0.1595E+02  0.1054E+03
    -10.311  0.6127E+01  0.1062E+03
    -10.182  0.3205E+02  0.1104E+03
    -10.052  0.2256E+02  0.1133E+03
     -9.922  0.1199E+02  0.1148E+03
     -9.793  0.2080E+02  0.1175E+03
     -9.663  0.1605E+02  0.1196E+03
     -9.534  0.3167E+02  0.1237E+03
     -9.404  0.1602E+02  0.1258E+03
     -9.275  0.3003E+02  0.1297E+03
     -9.145  0.2231E+02  0.1326E+03
     -9.015  0.2902E+02  0.1363E+03
     -8.886  0.2146E+02  0.1391E+03
     -8.756  0.1324E+02  0.1408E+03
     -8.627  0.2726E+02  0.1444E+03
     -8.497  0.1536E+02  0.1463E+03
     -8.367  0.1661E+02  0.1485E+03
     -8.238  0.1480E+02  0.1504E+03
     -8.108  0.1786E+02  0.1527E+03
     -7.979  0.2776E+02  0.1563E+03
     -7.849  0.1601E+02  0.1584E+03
     -7.720  0.1567E+02  0.1604E+03
     -7.590  0.8394E+01  0.1615E+03
     -7.460  0.2000E+01  0.1618E+03
     -7.331  0.1721E+02  0.1640E+03
     -7.201  0.3255E+02  0.1682E+03
     -7.072  0.1687E+02  0.1704E+03
     -6.942  0.3414E+01  0.1709E+03
     -6.812  0.2039E+02  0.1735E+03
     -6.683  0.1146E+02  0.1750E+03
     -6.553  0.1681E+02  0.1772E+03
     -6.424  0.7803E+01  0.1782E+03
     -6.294  0.1156E+02  0.1797E+03
     -6.164  0.1523E+02  0.1816E+03
     -6.035  0.1493E+02  0.1836E+03
     -5.905  0.1631E+02  0.1857E+03
     -5.776  0.1079E+02  0.1871E+03
     -5.646  0.1317E+02  0.1888E+03
     -5.517  0.5959E+01  0.1896E+03
     -5.387  0.6491E+01  0.1904E+03
     -5.257  0.1026E+02  0.1917E+03
     -5.128  0.7117E+01  0.1927E+03
     -4.998  0.1473E+02  0.1946E+03
     -4.869  0.2403E+02  0.1977E+03
     -4.739  0.3283E+01  0.1981E+03
     -4.609  0.8390E+00  0.1982E+03
     -4.480  0.2277E-04  0.1982E+03
     -4.350  0.1699E+00  0.1982E+03
     -4.221  0.1468E+02  0.2001E+03
     -4.091  0.1073E+02  0.2015E+03
     -3.961  0.1456E+00  0.2016E+03
     -3.832  0.8394E-02  0.2016E+03
     -3.702  0.2745E+01  0.2019E+03
     -3.573  0.6787E+00  0.2020E+03
     -3.443  0.2302E+01  0.2023E+03
     -3.314  0.9354E+01  0.2035E+03
     -3.184  0.9177E+01  0.2047E+03
     -3.054  0.9930E+01  0.2060E+03
     -2.925  0.7975E+00  0.2061E+03
     -2.795  0.7152E+01  0.2070E+03
     -2.666  0.4157E+01  0.2076E+03
     -2.536  0.5214E-03  0.2076E+03
     -2.406  0.1002E+01  0.2077E+03
     -2.277  0.2655E+01  0.2080E+03
     -2.147  0.3151E+01  0.2084E+03
     -2.018  0.5170E-01  0.2084E+03
     -1.888  0.9314E-08  0.2084E+03
     -1.758  0.1139E-04  0.2084E+03
     -1.629  0.1470E+01  0.2086E+03
     -1.499  0.9575E+01  0.2099E+03
     -1.370  0.1399E+02  0.2117E+03
     -1.240  0.6879E+00  0.2118E+03
     -1.111  0.1261E-02  0.2118E+03
     -0.981  0.2352E+01  0.2121E+03
     -0.851  0.1526E+02  0.2141E+03
     -0.722  0.2068E+02  0.2167E+03
     -0.592  0.1677E+02  0.2189E+03
     -0.463  0.4883E+01  0.2195E+03
     -0.333  0.1630E+00  0.2196E+03
     -0.203  0.5380E+01  0.2203E+03
     -0.074  0.1134E+02  0.2217E+03
      0.056  0.1022E+02  0.2231E+03
      0.185  0.6487E+00  0.2231E+03
      0.315  0.1708E+02  0.2254E+03
      0.444  0.7140E+01  0.2263E+03
      0.574  0.3154E+01  0.2267E+03
      0.704  0.1071E+02  0.2281E+03
      0.833  0.1742E+02  0.2303E+03
      0.963  0.6005E+01  0.2311E+03
      1.092  0.1032E+02  0.2325E+03
      1.222  0.1616E+02  0.2345E+03
      1.352  0.7241E+01  0.2355E+03
      1.481  0.1464E+02  0.2374E+03
      1.611  0.2430E+02  0.2405E+03
      1.740  0.1548E+02  0.2425E+03
      1.870  0.2757E+02  0.2461E+03
      2.000  0.1264E+02  0.2477E+03
      2.129  0.1801E+02  0.2501E+03
      2.259  0.2547E+02  0.2534E+03
      2.388  0.3441E+02  0.2578E+03
      2.518  0.1629E+02  0.2600E+03
      2.647  0.2555E+01  0.2603E+03
      2.777  0.5706E+01  0.2610E+03
      2.907  0.5847E+01  0.2618E+03
      3.036  0.7133E+01  0.2627E+03
      3.166  0.3162E+01  0.2631E+03
      3.295  0.2946E+01  0.2635E+03
      3.425  0.4669E+00  0.2636E+03
      3.555  0.3131E+00  0.2636E+03
      3.684  0.3083E+01  0.2640E+03
      3.814  0.3374E-01  0.2640E+03
      3.943  0.3431E-08  0.2640E+03
      4.073  0.0000E+00  0.2640E+03
      4.203  0.0000E+00  0.2640E+03
      4.332  0.0000E+00  0.2640E+03
      4.462  0.0000E+00  0.2640E+03
      4.591  0.0000E+00  0.2640E+03
      4.721  0.0000E+00  0.2640E+03
      4.850  0.0000E+00  0.2640E+03
      4.980  0.0000E+00  0.2640E+03
      5.110  0.0000E+00  0.2640E+03
      5.239  0.0000E+00  0.2640E+03
      5.369  0.0000E+00  0.2640E+03
