 running on   48 total cores
 distrk:  each k-point on   48 cores,    1 groups
 distr:  one band on    8 cores,    6 groups
 using from now: INCAR     
 vasp.5.4.4.18Apr17-6-g9f103f2a35 (build Aug 13 2022 23:40:43) complex          
  
 POSCAR found type information on POSCAR  C  O 
 POSCAR found :  2 types and      51 ions
 scaLAPACK will be used

 ----------------------------------------------------------------------------- 
|                                                                             |
|  ADVICE TO THIS USER RUNNING 'VASP/VAMP'   (HEAR YOUR MASTER'S VOICE ...):  |
|                                                                             |
|      You have a (more or less) 'large supercell' and for larger cells       |
|      it might be more efficient to use real space projection opertators     |
|      So try LREAL= Auto  in the INCAR   file.                               |
|      Mind:          For very  accurate calculation you might also keep the  |
|      reciprocal projection scheme          (i.e. LREAL=.FALSE.)             |
|                                                                             |
 ----------------------------------------------------------------------------- 

 LDA part: xc-table for Pade appr. of Perdew
 POSCAR found type information on POSCAR  C  O 
 POSCAR found :  2 types and      51 ions
 found WAVECAR, reading the header
  number of k-points has changed, file:     3 present:     4
  trying to continue reading WAVECAR, but it might fail
 POSCAR, INCAR and KPOINTS ok, starting setup
 FFT: planning ...
 reading WAVECAR
 the WAVECAR file was read successfully
 charge-density read from file: 1.00000000000000                        
 entering main loop
       N       E                     dE             d eps       ncg     rms          rms(c)
DAV:   1    -0.454133435702E+03   -0.45413E+03   -0.56914E+01  1080   0.799E+00    0.125E-01
RMM:   2    -0.454327461569E+03   -0.19403E+00   -0.19424E+00  1125   0.193E+00    0.635E-02
RMM:   3    -0.454338840263E+03   -0.11379E-01   -0.12701E-01  1240   0.386E-01    0.442E-02
RMM:   4    -0.454339555375E+03   -0.71511E-03   -0.74454E-03   997   0.104E-01    0.338E-02
RMM:   5    -0.454339612806E+03   -0.57430E-04   -0.58972E-04  1111   0.345E-02    0.649E-03
RMM:   6    -0.454339617846E+03   -0.50401E-05   -0.42957E-05   823   0.101E-02
   1 F= -.45433962E+03 E0= -.45433956E+03  d E =-.114812E-03
