  51  51   0   0
  0.5138078E+02  0.1230000E-08  0.1230000E-08  0.2000000E-08  0.5000000E-15
  1.000000000000000E-004
  CAR 
                                         
      5.96295113    -33.53626161  301     -3.01662382      1.00000000
    -33.536  0.0000E+00  0.0000E+00
    -33.405  0.0000E+00  0.0000E+00
    -33.273  0.0000E+00  0.0000E+00
    -33.141  0.0000E+00  0.0000E+00
    -33.010  0.0000E+00  0.0000E+00
    -32.878  0.0000E+00  0.0000E+00
    -32.746  0.0000E+00  0.0000E+00
    -32.615  0.0000E+00  0.0000E+00
    -32.483  0.0000E+00  0.0000E+00
    -32.351  0.0000E+00  0.0000E+00
    -32.220  0.0000E+00  0.0000E+00
    -32.088  0.0000E+00  0.0000E+00
    -31.956  0.8303E-08  0.1093E-08
    -31.825  0.1347E+00  0.1773E-01
    -31.693  0.1372E+02  0.1824E+01
    -31.561  0.1337E+01  0.2000E+01
    -31.430  0.2914E-05  0.2000E+01
    -31.298  0.0000E+00  0.2000E+01
    -31.166  0.0000E+00  0.2000E+01
    -31.035  0.0000E+00  0.2000E+01
    -30.903  0.0000E+00  0.2000E+01
    -30.771  0.0000E+00  0.2000E+01
    -30.640  0.0000E+00  0.2000E+01
    -30.508  0.0000E+00  0.2000E+01
    -30.376  0.0000E+00  0.2000E+01
    -30.245  0.0000E+00  0.2000E+01
    -30.113  0.0000E+00  0.2000E+01
    -29.981  0.0000E+00  0.2000E+01
    -29.850  0.0000E+00  0.2000E+01
    -29.718  0.0000E+00  0.2000E+01
    -29.586  0.0000E+00  0.2000E+01
    -29.455  0.0000E+00  0.2000E+01
    -29.323  0.0000E+00  0.2000E+01
    -29.191  0.0000E+00  0.2000E+01
    -29.060  0.0000E+00  0.2000E+01
    -28.928  0.0000E+00  0.2000E+01
    -28.796  0.0000E+00  0.2000E+01
    -28.665  0.0000E+00  0.2000E+01
    -28.533  0.0000E+00  0.2000E+01
    -28.401  0.0000E+00  0.2000E+01
    -28.270  0.0000E+00  0.2000E+01
    -28.138  0.0000E+00  0.2000E+01
    -28.006  0.0000E+00  0.2000E+01
    -27.875  0.0000E+00  0.2000E+01
    -27.743  0.0000E+00  0.2000E+01
    -27.611  0.0000E+00  0.2000E+01
    -27.480  0.0000E+00  0.2000E+01
    -27.348  0.0000E+00  0.2000E+01
    -27.216  0.0000E+00  0.2000E+01
    -27.085  0.0000E+00  0.2000E+01
    -26.953  0.0000E+00  0.2000E+01
    -26.821  0.0000E+00  0.2000E+01
    -26.690  0.0000E+00  0.2000E+01
    -26.558  0.0000E+00  0.2000E+01
    -26.426  0.0000E+00  0.2000E+01
    -26.295  0.0000E+00  0.2000E+01
    -26.163  0.0000E+00  0.2000E+01
    -26.031  0.0000E+00  0.2000E+01
    -25.900  0.0000E+00  0.2000E+01
    -25.768  0.0000E+00  0.2000E+01
    -25.636  0.0000E+00  0.2000E+01
    -25.505  0.0000E+00  0.2000E+01
    -25.373  0.0000E+00  0.2000E+01
    -25.241  0.0000E+00  0.2000E+01
    -25.110  0.0000E+00  0.2000E+01
    -24.978  0.0000E+00  0.2000E+01
    -24.846  0.0000E+00  0.2000E+01
    -24.715  0.0000E+00  0.2000E+01
    -24.583  0.0000E+00  0.2000E+01
    -24.451  0.0000E+00  0.2000E+01
    -24.320  0.0000E+00  0.2000E+01
    -24.188  0.0000E+00  0.2000E+01
    -24.056  0.0000E+00  0.2000E+01
    -23.925  0.0000E+00  0.2000E+01
    -23.793  0.0000E+00  0.2000E+01
    -23.661  0.0000E+00  0.2000E+01
    -23.530  0.0000E+00  0.2000E+01
    -23.398  0.0000E+00  0.2000E+01
    -23.266  0.0000E+00  0.2000E+01
    -23.135  0.0000E+00  0.2000E+01
    -23.003  0.0000E+00  0.2000E+01
    -22.871  0.0000E+00  0.2000E+01
    -22.740  0.0000E+00  0.2000E+01
    -22.608  0.0000E+00  0.2000E+01
    -22.476  0.4916E-08  0.2000E+01
    -22.345  0.3038E-01  0.2004E+01
    -22.213  0.4036E+01  0.2535E+01
    -22.081  0.9434E+01  0.3777E+01
    -21.950  0.4997E+01  0.4435E+01
    -21.818  0.1054E+02  0.5823E+01
    -21.686  0.5499E+01  0.6547E+01
    -21.555  0.7921E+01  0.7590E+01
    -21.423  0.1230E+02  0.9209E+01
    -21.292  0.5998E+01  0.9999E+01
    -21.160  0.3452E+01  0.1045E+02
    -21.028  0.9168E+01  0.1166E+02
    -20.897  0.1030E+02  0.1302E+02
    -20.765  0.1052E+02  0.1440E+02
    -20.633  0.8726E+01  0.1555E+02
    -20.502  0.1815E+00  0.1557E+02
    -20.370  0.1292E+02  0.1727E+02
    -20.238  0.4118E+01  0.1782E+02
    -20.107  0.1832E+02  0.2023E+02
    -19.975  0.1649E+01  0.2045E+02
    -19.843  0.3336E+01  0.2089E+02
    -19.712  0.1381E+02  0.2270E+02
    -19.580  0.8653E+01  0.2384E+02
    -19.448  0.6244E+01  0.2466E+02
    -19.317  0.6325E+01  0.2550E+02
    -19.185  0.1429E+02  0.2738E+02
    -19.053  0.7317E+01  0.2834E+02
    -18.922  0.5075E+01  0.2901E+02
    -18.790  0.5318E+01  0.2971E+02
    -18.658  0.4779E+01  0.3034E+02
    -18.527  0.1422E+02  0.3221E+02
    -18.395  0.1112E+02  0.3368E+02
    -18.263  0.9124E+01  0.3488E+02
    -18.132  0.4270E+01  0.3544E+02
    -18.000  0.1578E+02  0.3752E+02
    -17.868  0.4801E+01  0.3815E+02
    -17.737  0.3821E+01  0.3865E+02
    -17.605  0.4971E+01  0.3931E+02
    -17.473  0.1628E+02  0.4145E+02
    -17.342  0.4045E+01  0.4198E+02
    -17.210  0.2169E+02  0.4484E+02
    -17.078  0.6847E+01  0.4574E+02
    -16.947  0.3642E+01  0.4622E+02
    -16.815  0.8640E+01  0.4736E+02
    -16.683  0.3973E+01  0.4788E+02
    -16.552  0.9082E+01  0.4908E+02
    -16.420  0.8837E+01  0.5024E+02
    -16.288  0.3125E+01  0.5065E+02
    -16.157  0.9187E+01  0.5186E+02
    -16.025  0.5645E+01  0.5260E+02
    -15.893  0.1312E+02  0.5433E+02
    -15.762  0.1228E+02  0.5595E+02
    -15.630  0.2054E+01  0.5622E+02
    -15.498  0.4091E+01  0.5676E+02
    -15.367  0.2976E+01  0.5715E+02
    -15.235  0.1003E+02  0.5847E+02
    -15.103  0.2169E+02  0.6132E+02
    -14.972  0.5154E+01  0.6200E+02
    -14.840  0.1123E+02  0.6348E+02
    -14.708  0.1069E+02  0.6489E+02
    -14.577  0.6478E+01  0.6574E+02
    -14.445  0.1486E+02  0.6770E+02
    -14.313  0.5668E+01  0.6844E+02
    -14.182  0.9051E+00  0.6856E+02
    -14.050  0.4179E+01  0.6911E+02
    -13.918  0.9314E+01  0.7034E+02
    -13.787  0.1622E+02  0.7248E+02
    -13.655  0.1898E+02  0.7498E+02
    -13.523  0.1697E+01  0.7520E+02
    -13.392  0.2701E+01  0.7555E+02
    -13.260  0.3731E+00  0.7560E+02
    -13.128  0.1082E+02  0.7703E+02
    -12.997  0.1383E+02  0.7885E+02
    -12.865  0.2056E+02  0.8156E+02
    -12.733  0.1683E+01  0.8178E+02
    -12.602  0.3973E+01  0.8230E+02
    -12.470  0.1823E+02  0.8470E+02
    -12.338  0.1084E+02  0.8613E+02
    -12.207  0.3767E+01  0.8662E+02
    -12.075  0.2851E+01  0.8700E+02
    -11.943  0.1251E+02  0.8865E+02
    -11.812  0.3070E+01  0.8905E+02
    -11.680  0.1550E+02  0.9109E+02
    -11.548  0.1832E+02  0.9350E+02
    -11.417  0.1373E+02  0.9531E+02
    -11.285  0.8023E+01  0.9637E+02
    -11.153  0.5812E+01  0.9713E+02
    -11.022  0.8265E+01  0.9822E+02
    -10.890  0.1188E+02  0.9979E+02
    -10.758  0.1791E+02  0.1021E+03
    -10.627  0.1794E+01  0.1024E+03
    -10.495  0.2038E+02  0.1051E+03
    -10.363  0.4235E+01  0.1056E+03
    -10.232  0.2307E+02  0.1087E+03
    -10.100  0.2631E+02  0.1121E+03
     -9.968  0.1909E+02  0.1146E+03
     -9.837  0.1348E+02  0.1164E+03
     -9.705  0.1825E+02  0.1188E+03
     -9.573  0.2682E+02  0.1223E+03
     -9.442  0.2162E+02  0.1252E+03
     -9.310  0.2665E+02  0.1287E+03
     -9.178  0.2356E+02  0.1318E+03
     -9.047  0.2860E+02  0.1356E+03
     -8.915  0.1995E+02  0.1382E+03
     -8.783  0.1885E+02  0.1407E+03
     -8.652  0.2182E+02  0.1436E+03
     -8.520  0.1832E+02  0.1460E+03
     -8.388  0.1618E+02  0.1481E+03
     -8.257  0.1569E+02  0.1502E+03
     -8.125  0.1521E+02  0.1522E+03
     -7.993  0.2917E+02  0.1560E+03
     -7.862  0.1617E+02  0.1581E+03
     -7.730  0.1736E+02  0.1604E+03
     -7.598  0.7775E+01  0.1614E+03
     -7.467  0.2564E+01  0.1618E+03
     -7.335  0.1587E+02  0.1639E+03
     -7.203  0.3248E+02  0.1681E+03
     -7.072  0.1725E+02  0.1704E+03
     -6.940  0.3640E+01  0.1709E+03
     -6.808  0.1991E+02  0.1735E+03
     -6.677  0.1204E+02  0.1751E+03
     -6.545  0.1635E+02  0.1773E+03
     -6.413  0.7287E+01  0.1782E+03
     -6.282  0.1218E+02  0.1798E+03
     -6.150  0.1526E+02  0.1818E+03
     -6.018  0.1423E+02  0.1837E+03
     -5.887  0.1913E+02  0.1862E+03
     -5.755  0.8378E+01  0.1873E+03
     -5.623  0.1394E+02  0.1892E+03
     -5.492  0.3577E+01  0.1896E+03
     -5.360  0.7453E+01  0.1906E+03
     -5.228  0.9175E+01  0.1918E+03
     -5.097  0.1087E+02  0.1932E+03
     -4.965  0.1752E+02  0.1956E+03
     -4.834  0.1690E+02  0.1978E+03
     -4.702  0.3208E+01  0.1982E+03
     -4.570  0.1502E+00  0.1982E+03
     -4.439  0.1651E-04  0.1982E+03
     -4.307  0.2328E+01  0.1985E+03
     -4.175  0.1715E+02  0.2008E+03
     -4.044  0.5835E+01  0.2016E+03
     -3.912  0.1990E-02  0.2016E+03
     -3.780  0.3290E+00  0.2016E+03
     -3.649  0.3021E+01  0.2020E+03
     -3.517  0.1833E+00  0.2020E+03
     -3.385  0.4044E+01  0.2026E+03
     -3.254  0.1230E+02  0.2042E+03
     -3.122  0.1038E+02  0.2055E+03
     -2.990  0.3530E+01  0.2060E+03
     -2.859  0.2186E+01  0.2063E+03
     -2.727  0.9449E+01  0.2075E+03
     -2.595  0.1497E+00  0.2076E+03
     -2.464  0.4701E-01  0.2076E+03
     -2.332  0.3118E+01  0.2080E+03
     -2.200  0.2757E+01  0.2083E+03
     -2.069  0.8290E+00  0.2084E+03
     -1.937  0.1725E-04  0.2084E+03
     -1.805  0.8254E-08  0.2084E+03
     -1.674  0.1063E+00  0.2085E+03
     -1.542  0.9271E+01  0.2097E+03
     -1.410  0.1168E+02  0.2112E+03
     -1.279  0.4258E+01  0.2118E+03
     -1.147  0.2958E-03  0.2118E+03
     -1.015  0.9302E+00  0.2119E+03
     -0.884  0.9501E+01  0.2132E+03
     -0.752  0.2409E+02  0.2163E+03
     -0.620  0.1859E+02  0.2188E+03
     -0.489  0.5595E+01  0.2195E+03
     -0.357  0.3811E+00  0.2196E+03
     -0.225  0.4070E+01  0.2201E+03
     -0.094  0.1122E+02  0.2216E+03
      0.038  0.1066E+02  0.2230E+03
      0.170  0.1123E+01  0.2231E+03
      0.301  0.1522E+02  0.2251E+03
      0.433  0.8274E+01  0.2262E+03
      0.565  0.3307E+01  0.2266E+03
      0.696  0.9545E+01  0.2279E+03
      0.828  0.1809E+02  0.2303E+03
      0.960  0.6144E+01  0.2311E+03
      1.091  0.1045E+02  0.2325E+03
      1.223  0.1581E+02  0.2346E+03
      1.355  0.7443E+01  0.2355E+03
      1.486  0.1505E+02  0.2375E+03
      1.618  0.2293E+02  0.2405E+03
      1.750  0.1500E+02  0.2425E+03
      1.881  0.2820E+02  0.2462E+03
      2.013  0.8688E+01  0.2474E+03
      2.145  0.1525E+02  0.2494E+03
      2.276  0.2584E+02  0.2528E+03
      2.408  0.2930E+02  0.2566E+03
      2.540  0.8713E+01  0.2578E+03
      2.671  0.6081E+01  0.2586E+03
      2.803  0.8464E+01  0.2597E+03
      2.935  0.5801E+01  0.2605E+03
      3.066  0.8928E+01  0.2616E+03
      3.198  0.2730E+01  0.2620E+03
      3.330  0.5030E+01  0.2627E+03
      3.461  0.5524E-01  0.2627E+03
      3.593  0.2640E+01  0.2630E+03
      3.725  0.4108E+01  0.2636E+03
      3.856  0.2541E-02  0.2636E+03
      3.988  0.6431E-06  0.2636E+03
      4.120  0.2965E+00  0.2636E+03
      4.251  0.3049E+01  0.2640E+03
      4.383  0.3004E-01  0.2640E+03
      4.515  0.1860E-08  0.2640E+03
      4.646  0.0000E+00  0.2640E+03
      4.778  0.0000E+00  0.2640E+03
      4.910  0.0000E+00  0.2640E+03
      5.041  0.0000E+00  0.2640E+03
      5.173  0.0000E+00  0.2640E+03
      5.305  0.0000E+00  0.2640E+03
      5.436  0.0000E+00  0.2640E+03
      5.568  0.0000E+00  0.2640E+03
      5.700  0.0000E+00  0.2640E+03
      5.831  0.0000E+00  0.2640E+03
      5.963  0.0000E+00  0.2640E+03
