 vasp.5.4.4.18Apr17-6-g9f103f2a35 (build Aug 13 2022 23:40:43) complex          
  
 executed on             LinuxIFC date 2024.11.10  04:26:13
 running on   48 total cores
 distrk:  each k-point on   48 cores,    1 groups
 distr:  one band on NCORES_PER_BAND=   8 cores,    6 groups


--------------------------------------------------------------------------------------------------------


 INCAR:
 POTCAR:    PAW_PBE C 08Apr2002                   
 POTCAR:    PAW_PBE O 08Apr2002                   
 POTCAR:    PAW_PBE C 08Apr2002                   
   VRHFIN =C: s2p2                                                              
   LEXCH  = PE                                                                  
   EATOM  =   147.1560 eV,   10.8157 Ry                                         
                                                                                
   TITEL  = PAW_PBE C 08Apr2002                                                 
   LULTRA =        F    use ultrasoft PP ?                                      
   IUNSCR =        1    unscreen: 0-lin 1-nonlin 2-no                           
   RPACOR =    1.200    partial core radius                                     
   POMASS =   12.011; ZVAL   =    4.000    mass and valenz                      
   RCORE  =    1.500    outmost cutoff radius                                   
   RWIGS  =    1.630; RWIGS  =    0.863    wigner-seitz radius (au A)           
   ENMAX  =  400.000; ENMIN  =  300.000 eV                                      
   ICORE  =        2    local potential                                         
   LCOR   =        T    correct aug charges                                     
   LPAW   =        T    paw PP                                                  
   EAUG   =  644.873                                                            
   DEXC   =    0.000                                                            
   RMAX   =    1.529    core radius for proj-oper                               
   RAUG   =    1.300    factor for augmentation sphere                          
   RDEP   =    1.501    radius for radial grids                                 
   RDEPT  =    1.300    core radius for aug-charge                              
                                                                                
   Atomic configuration                                                         
    4 entries                                                                   
     n  l   j            E        occ.                                          
     1  0  0.50      -273.3789   2.0000                                         
     2  0  0.50       -13.7508   2.0000                                         
     2  1  0.50        -5.2854   2.0000                                         
     3  2  1.50        -5.4423   0.0000                                         
   Description                                                                  
     l       E           TYP  RCUT    TYP  RCUT                                 
     0    -13.7508458     23  1.200                                             
     0     -8.2022199     23  1.200                                             
     1     -5.2854383     23  1.500                                             
     1     34.0145650     23  1.500                                             
     2     -5.4423304      7  1.500                                             
  local pseudopotential read in
  partial core-charges read in
  partial kinetic energy density read in
  atomic valenz-charges read in
  non local Contribution for L=           0  read in
    real space projection operators read in
  non local Contribution for L=           0  read in
    real space projection operators read in
  non local Contribution for L=           1  read in
    real space projection operators read in
  non local Contribution for L=           1  read in
    real space projection operators read in
    PAW grid and wavefunctions read in
 
   number of l-projection  operators is LMAX  =           4
   number of lm-projection operators is LMMAX =           8
 
 POTCAR:    PAW_PBE O 08Apr2002                   
   VRHFIN =O: s2p4                                                              
   LEXCH  = PE                                                                  
   EATOM  =   432.3788 eV,   31.7789 Ry                                         
                                                                                
   TITEL  = PAW_PBE O 08Apr2002                                                 
   LULTRA =        F    use ultrasoft PP ?                                      
   IUNSCR =        1    unscreen: 0-lin 1-nonlin 2-no                           
   RPACOR =    1.200    partial core radius                                     
   POMASS =   16.000; ZVAL   =    6.000    mass and valenz                      
   RCORE  =    1.520    outmost cutoff radius                                   
   RWIGS  =    1.550; RWIGS  =    0.820    wigner-seitz radius (au A)           
   ENMAX  =  400.000; ENMIN  =  300.000 eV                                      
   ICORE  =        2    local potential                                         
   LCOR   =        T    correct aug charges                                     
   LPAW   =        T    paw PP                                                  
   EAUG   =  605.392                                                            
   DEXC   =    0.000                                                            
   RMAX   =    1.553    core radius for proj-oper                               
   RAUG   =    1.300    factor for augmentation sphere                          
   RDEP   =    1.550    radius for radial grids                                 
   RDEPT  =    1.329    core radius for aug-charge                              
                                                                                
   Atomic configuration                                                         
    4 entries                                                                   
     n  l   j            E        occ.                                          
     1  0  0.50      -514.6923   2.0000                                         
     2  0  0.50       -23.9615   2.0000                                         
     2  1  0.50        -9.0305   4.0000                                         
     3  2  1.50        -9.5241   0.0000                                         
   Description                                                                  
     l       E           TYP  RCUT    TYP  RCUT                                 
     0    -23.9615318     23  1.200                                             
     0     -9.5240782     23  1.200                                             
     1     -9.0304911     23  1.520                                             
     1      8.1634956     23  1.520                                             
     2     -9.5240782      7  1.500                                             
  local pseudopotential read in
  partial core-charges read in
  partial kinetic energy density read in
  kinetic energy density of atom read in
  atomic valenz-charges read in
  non local Contribution for L=           0  read in
    real space projection operators read in
  non local Contribution for L=           0  read in
    real space projection operators read in
  non local Contribution for L=           1  read in
    real space projection operators read in
  non local Contribution for L=           1  read in
    real space projection operators read in
    PAW grid and wavefunctions read in
 
   number of l-projection  operators is LMAX  =           4
   number of lm-projection operators is LMMAX =           8
 

 ----------------------------------------------------------------------------- 
|                                                                             |
|  ADVICE TO THIS USER RUNNING 'VASP/VAMP'   (HEAR YOUR MASTER'S VOICE ...):  |
|                                                                             |
|      You have a (more or less) 'large supercell' and for larger cells       |
|      it might be more efficient to use real space projection opertators     |
|      So try LREAL= Auto  in the INCAR   file.                               |
|      Mind:          For very  accurate calculation you might also keep the  |
|      reciprocal projection scheme          (i.e. LREAL=.FALSE.)             |
|                                                                             |
 ----------------------------------------------------------------------------- 

  PAW_PBE C 08Apr2002                   :
 energy of atom  1       EATOM= -147.1560
 kinetic energy error for atom=    0.0288 (will be added to EATOM!!)
  PAW_PBE O 08Apr2002                   :
 energy of atom  2       EATOM= -432.3788
 kinetic energy error for atom=    0.1156 (will be added to EATOM!!)
 
 
 POSCAR: generated by phonopy                    
  positions in direct lattice
  No initial velocities read in
 exchange correlation table for  LEXCH =        8
   RHO(1)=    0.500       N(1)  =     2000
   RHO(2)=  100.500       N(2)  =     4000

 VTST: version 3.2, (02/03/18)

 CHAIN: initializing optimizer
 
 OPT: Using VASP Dynamics algorithm
 CHAIN: Read ICHAIN            0
 
 POSCAR: generated by phonopy                    
  positions in direct lattice
  No initial velocities read in
 


--------------------------------------------------------------------------------------------------------


 ion  position               nearest neighbor table
   1  0.000  0.000  0.418-  26 1.42  30 1.42  46 1.42
   2  0.200  0.000  0.418-  27 1.42  26 1.42  47 1.42
   3  0.400  0.000  0.418-  28 1.42  27 1.42  48 1.42
   4  0.600  0.000  0.418-  29 1.42  28 1.42  49 1.42
   5  0.800  0.000  0.418-  30 1.42  29 1.42  50 1.42
   6  0.000  0.200  0.418-  31 1.42  35 1.42  26 1.42
   7  0.200  0.200  0.418-  32 1.42  31 1.42  27 1.42
   8  0.400  0.200  0.418-  33 1.42  32 1.42  28 1.42
   9  0.600  0.200  0.418-  34 1.42  33 1.42  29 1.42
  10  0.800  0.200  0.418-  35 1.42  34 1.42  30 1.42
  11  0.000  0.400  0.418-  36 1.42  40 1.42  31 1.42
  12  0.200  0.400  0.418-  37 1.42  36 1.42  32 1.42
  13  0.400  0.400  0.418-  51 1.00  38 1.42  37 1.42  33 1.42
  14  0.600  0.400  0.418-  39 1.42  38 1.42  34 1.42
  15  0.800  0.400  0.418-  40 1.42  39 1.42  35 1.42
  16  0.000  0.600  0.418-  41 1.42  45 1.42  36 1.42
  17  0.200  0.600  0.418-  42 1.42  41 1.42  37 1.42
  18  0.400  0.600  0.418-  43 1.42  42 1.42  38 1.42
  19  0.600  0.600  0.418-  44 1.41  43 1.42  39 1.42
  20  0.800  0.600  0.418-  45 1.42  40 1.42  44 1.43
  21  0.000  0.800  0.418-  46 1.42  50 1.42  41 1.42
  22  0.200  0.800  0.418-  47 1.42  46 1.42  42 1.42
  23  0.400  0.800  0.418-  48 1.42  47 1.42  43 1.42
  24  0.600  0.800  0.418-  49 1.42  48 1.42  44 1.42
  25  0.800  0.800  0.418-  50 1.42  49 1.42  45 1.42
  26  0.067  0.067  0.418-   1 1.42   2 1.42   6 1.42
  27  0.267  0.067  0.418-   2 1.42   3 1.42   7 1.42
  28  0.467  0.067  0.418-   3 1.42   4 1.42   8 1.42
  29  0.667  0.067  0.418-   4 1.42   5 1.42   9 1.42
  30  0.867  0.067  0.418-   5 1.42   1 1.42  10 1.42
  31  0.067  0.267  0.418-   6 1.42   7 1.42  11 1.42
  32  0.267  0.267  0.418-   7 1.42   8 1.42  12 1.42
  33  0.467  0.267  0.418-   8 1.42   9 1.42  13 1.42  51 1.74
  34  0.667  0.267  0.418-   9 1.42  10 1.42  14 1.42
  35  0.867  0.267  0.418-  10 1.42   6 1.42  15 1.42
  36  0.067  0.467  0.418-  11 1.42  12 1.42  16 1.42
  37  0.267  0.467  0.418-  12 1.42  13 1.42  17 1.42  51 1.74
  38  0.467  0.467  0.418-  13 1.42  14 1.42  18 1.42  51 1.74
  39  0.667  0.467  0.418-  14 1.42  15 1.42  19 1.42
  40  0.867  0.467  0.418-  15 1.42  11 1.42  20 1.42
  41  0.067  0.667  0.418-  16 1.42  17 1.42  21 1.42
  42  0.267  0.667  0.418-  17 1.42  18 1.42  22 1.42
  43  0.467  0.667  0.418-  18 1.42  19 1.42  23 1.42
  44  0.666  0.667  0.418-  19 1.41  24 1.42  20 1.43
  45  0.867  0.667  0.418-  20 1.42  16 1.42  25 1.42
  46  0.067  0.867  0.418-  21 1.42  22 1.42   1 1.42
  47  0.267  0.867  0.418-  22 1.42  23 1.42   2 1.42
  48  0.467  0.867  0.418-  23 1.42  24 1.42   3 1.42
  49  0.667  0.867  0.418-  24 1.42  25 1.42   4 1.42
  50  0.867  0.867  0.418-  25 1.42  21 1.42   5 1.42
  51  0.400  0.400  0.468-  13 1.00  38 1.74  37 1.74  33 1.74
 
  LATTYP: Found a hexagonal cell.
 ALAT       =    12.2999994816
 C/A-ratio  =     1.6260163287
  
  Lattice vectors:
  
 A1 = (   6.1499993860, -10.6521122225,   0.0000000000)
 A2 = ( -12.3000001905,   0.0000000000,   0.0000000000)
 A3 = (   0.0000000000,   0.0000000000, -20.0000000000)


Analysis of symmetry for initial positions (statically):
=====================================================================
 Subroutine PRICEL returns:
 Original cell was already a primitive cell.
 

 Routine SETGRP: Setting up the symmetry group for a 
 hexagonal supercell.


 Subroutine GETGRP returns: Found  1 space group operations
 (whereof  1 operations were pure point group operations)
 out of a pool of 24 trial point group operations.


The static configuration has the point symmetry C_1 .


Analysis of symmetry for dynamics (positions and initial velocities):
=====================================================================
 Subroutine PRICEL returns:
 Original cell was already a primitive cell.
 

 Routine SETGRP: Setting up the symmetry group for a 
 hexagonal supercell.


 Subroutine GETGRP returns: Found  1 space group operations
 (whereof  1 operations were pure point group operations)
 out of a pool of 24 trial point group operations.


The dynamic configuration has the point symmetry C_1 .


 Subroutine INISYM returns: Found  1 space group operations
 (whereof  1 operations are pure point group operations),
 and found     1 'primitive' translations

 
 
 KPOINTS: K-POINTS                                

Automatic generation of k-mesh.
Space group operators:
 irot       det(A)        alpha          n_x          n_y          n_z        tau_x        tau_y        tau_z
    1     1.000000     0.000000     1.000000     0.000000     0.000000     0.000000     0.000000     0.000000
 
 Subroutine IBZKPT returns following result:
 ===========================================
 
 Found      5 irreducible k-points:
 
 Following reciprocal coordinates:
            Coordinates               Weight
  0.000000  0.000000  0.000000      1.000000
  0.333333  0.000000  0.000000      2.000000
  0.000000  0.333333  0.000000      2.000000
  0.333333  0.333333  0.000000      2.000000
 -0.333333  0.333333  0.000000      2.000000
 
 Following cartesian coordinates:
            Coordinates               Weight
  0.000000  0.000000  0.000000      1.000000
  0.027100 -0.015646  0.000000      2.000000
  0.000000  0.031293  0.000000      2.000000
  0.027100  0.015646  0.000000      2.000000
 -0.027100  0.046939  0.000000      2.000000
 


--------------------------------------------------------------------------------------------------------




 Dimension of arrays:
   k-points           NKPTS =      5   k-points in BZ     NKDIM =      5   number of bands    NBANDS=    132
   number of dos      NEDOS =    301   number of ions     NIONS =     51
   non local maximal  LDIM  =      4   non local SUM 2l+1 LMDIM =      8
   total plane-waves  NPLWV = 896000
   max r-space proj   IRMAX =      1   max aug-charges    IRDMAX=  35685
   dimension x,y,z NGX =    80 NGY =   80 NGZ =  140
   dimension x,y,z NGXF=   160 NGYF=  160 NGZF=  280
   support grid    NGXF=   320 NGYF=  320 NGZF=  560
   ions per type =              50   1
   NGX,Y,Z   is equivalent  to a cutoff of  10.81, 10.81, 11.64 a.u.
   NGXF,Y,Z  is equivalent  to a cutoff of  21.63, 21.63, 23.27 a.u.

 SYSTEM =                                          
 POSCAR =  generated by phonopy                    

 Startparameter for this run:
   NWRITE =      2    write-flag & timer
   PREC   = accura    normal or accurate (medium, high low for compatibility)
   ISTART =      1    job   : 0-new  1-cont  2-samecut
   ICHARG =      1    charge: 1-file 2-atom 10-const
   ISPIN  =      1    spin polarized calculation?
   LNONCOLLINEAR =      F non collinear calculations
   LSORBIT =      F    spin-orbit coupling
   INIWAV =      1    electr: 0-lowe 1-rand  2-diag
   LASPH  =      F    aspherical Exc in radial PAW
   METAGGA=      F    non-selfconsistent MetaGGA calc.

 Electronic Relaxation 1
   ENCUT  =  400.0 eV  29.40 Ry    5.42 a.u.  20.06 20.06 32.61*2*pi/ulx,y,z
   ENINI  =  400.0     initial cutoff
   ENAUG  =  644.9 eV  augmentation charge cutoff
   NELM   =    300;   NELMIN=  2; NELMDL=  0     # of ELM steps 
   EDIFF  = 0.1E-04   stopping-criterion for ELM
   LREAL  =      F    real-space projection
   NLSPLINE    = F    spline interpolate recip. space projectors
   LCOMPAT=      F    compatible to vasp.4.4
   GGA_COMPAT  = T    GGA compatible to vasp.4.4-vasp.4.6
   LMAXPAW     = -100 max onsite density
   LMAXMIX     =    2 max onsite mixed and CHGCAR
   VOSKOWN=      0    Vosko Wilk Nusair interpolation
   ROPT   =    0.00000   0.00000
 Ionic relaxation
   EDIFFG = -.1E-02   stopping-criterion for IOM
   NSW    =      1    number of steps for IOM
   NBLOCK =      1;   KBLOCK =      1    inner block; outer block 
   IBRION =     -1    ionic relax: 0-MD 1-quasi-New 2-CG
   NFREE  =      0    steps in history (QN), initial steepest desc. (CG)
   ISIF   =      2    stress and relaxation
   IWAVPR =     10    prediction:  0-non 1-charg 2-wave 3-comb
   ISYM   =      2    0-nonsym 1-usesym 2-fastsym
   LCORR  =      T    Harris-Foulkes like correction to forces

   POTIM  = 0.5000    time-step for ionic-motion
   TEIN   =    0.0    initial temperature
   TEBEG  =    0.0;   TEEND  =   0.0 temperature during run
   SMASS  =  -3.00    Nose mass-parameter (am)
   estimated Nose-frequenzy (Omega)   =  0.10E-29 period in steps =****** mass=  -0.346E-26a.u.
   SCALEE = 1.0000    scale energy and forces
   NPACO  =    256;   APACO  = 16.0  distance and # of slots for P.C.
   PSTRESS=    0.0 pullay stress

  Mass of Ions in am
   POMASS =  12.01 16.00
  Ionic Valenz
   ZVAL   =   4.00  6.00
  Atomic Wigner-Seitz radii
   RWIGS  =  -1.00 -1.00
  virtual crystal weights 
   VCA    =   1.00  1.00
   NELECT =     206.0000    total number of electrons
   NUPDOWN=      -1.0000    fix difference up-down

 DOS related values:
   EMIN   =  10.00;   EMAX   =-10.00  energy-range for DOS
   EFERMI =   0.00
   ISMEAR =     0;   SIGMA  =   0.05  broadening in eV -4-tet -1-fermi 0-gaus

 Electronic relaxation 2 (details)
   IALGO  =     68    algorithm
   LDIAG  =      T    sub-space diagonalisation (order eigenvalues)
   LSUBROT=      F    optimize rotation matrix (better conditioning)
   TURBO    =      0    0=normal 1=particle mesh
   IRESTART =      0    0=no restart 2=restart with 2 vectors
   NREBOOT  =      0    no. of reboots
   NMIN     =      0    reboot dimension
   EREF     =   0.00    reference energy to select bands
   IMIX   =      4    mixing-type and parameters
     AMIX     =   0.40;   BMIX     =  1.00
     AMIX_MAG =   1.60;   BMIX_MAG =  1.00
     AMIN     =   0.10
     WC   =   100.;   INIMIX=   1;  MIXPRE=   1;  MAXMIX= -45

 Intra band minimization:
   WEIMIN = 0.0000     energy-eigenvalue tresh-hold
   EBREAK =  0.19E-07  absolut break condition
   DEPER  =   0.30     relativ break condition  

   TIME   =   0.40     timestep for ELM

  volume/ion in A,a.u.               =      51.38       346.73
  Fermi-wavevector in a.u.,A,eV,Ry     =   0.701305  1.325274  6.691736  0.491829
  Thomas-Fermi vector in A             =   1.785695
 
 Write flags
   LWAVE        =      F    write WAVECAR
   LDOWNSAMPLE  =      F    k-point downsampling of WAVECAR
   LCHARG       =      F    write CHGCAR
   LVTOT        =      F    write LOCPOT, total local potential
   LVHAR        =      F    write LOCPOT, Hartree potential only
   LELF         =      F    write electronic localiz. function (ELF)
   LORBIT       =      0    0 simple, 1 ext, 2 COOP (PROOUT), +10 PAW based schemes


 Dipole corrections
   LMONO  =      F    monopole corrections only (constant potential shift)
   LDIPOL =      F    correct potential (dipole corrections)
   IDIPOL =      0    1-x, 2-y, 3-z, 4-all directions 
   EPSILON=  1.0000000 bulk dielectric constant

 Exchange correlation treatment:
   GGA     =    --    GGA type
   LEXCH   =     8    internal setting for exchange type
   VOSKOWN=      0    Vosko Wilk Nusair interpolation
   LHFCALC =     F    Hartree Fock is set to
   LHFONE  =     F    Hartree Fock one center treatment
   AEXX    =    0.0000 exact exchange contribution

 Linear response parameters
   LEPSILON=     F    determine dielectric tensor
   LRPA    =     F    only Hartree local field effects (RPA)
   LNABLA  =     F    use nabla operator in PAW spheres
   LVEL    =     F    velocity operator in full k-point grid
   LINTERFAST=   F  fast interpolation
   KINTER  =     0    interpolate to denser k-point grid
   CSHIFT  =0.1000    complex shift for real part using Kramers Kronig
   OMEGAMAX=  -1.0    maximum frequency
   DEG_THRESHOLD= 0.2000000E-02 threshold for treating states as degnerate
   RTIME   =   -0.100 relaxation time in fs
  (WPLASMAI=    0.000 imaginary part of plasma frequency in eV, 0.658/RTIME)
   DFIELD  = 0.0000000 0.0000000 0.0000000 field for delta impulse in time
 
 Orbital magnetization related:
   ORBITALMAG=     F  switch on orbital magnetization
   LCHIMAG   =     F  perturbation theory with respect to B field
   DQ        =  0.001000  dq finite difference perturbation B field
   LLRAUG    =     F  two centre corrections for induced B field



--------------------------------------------------------------------------------------------------------


 Static calculation
 charge density and potential will be updated during run
 non-spin polarized calculation
 RMM-DIIS sequential band-by-band and
  variant of blocked Davidson during initial phase
 perform sub-space diagonalisation
    before iterative eigenvector-optimisation
 modified Broyden-mixing scheme, WC =      100.0
 initial mixing is a Kerker type mixing with AMIX =  0.4000 and BMIX =      1.0000
 Hartree-type preconditioning will be used
 using additional bands           29
 reciprocal scheme for non local part
 use partial core corrections
 calculate Harris-corrections to forces 
   (improved forces if not selfconsistent)
 use gradient corrections 
 use of overlap-Matrix (Vanderbilt PP)
 Gauss-broadening in eV      SIGMA  =   0.05


--------------------------------------------------------------------------------------------------------


  energy-cutoff  :      400.00
  volume of cell :     2620.42
      direct lattice vectors                 reciprocal lattice vectors
    12.300000191  0.000000000  0.000000000     0.081300812 -0.046939053  0.000000000
     6.150000804 10.652112223  0.000000000     0.000000000  0.093878095  0.000000000
     0.000000000  0.000000000 20.000000000     0.000000000  0.000000000  0.050000000

  length of vectors
    12.300000191 12.300000191 20.000000000     0.093878095  0.093878095  0.050000000


 
 old parameters found on file WAVECAR:
  energy-cutoff  :      400.00
  volume of cell :     2620.42
      direct lattice vectors                 reciprocal lattice vectors
    12.300000191  0.000000000  0.000000000     0.081300812 -0.046939053  0.000000000
     6.150000804 10.652112223  0.000000000     0.000000000  0.093878095  0.000000000
     0.000000000  0.000000000 20.000000000     0.000000000  0.000000000  0.050000000

  length of vectors

 
 k-points in units of 2pi/SCALE and weight: K-POINTS                                
   0.00000000  0.00000000  0.00000000       0.111
   0.02710027 -0.01564635  0.00000000       0.222
   0.00000000  0.03129270  0.00000000       0.222
   0.02710027  0.01564635  0.00000000       0.222
  -0.02710027  0.04693905  0.00000000       0.222
 
 k-points in reciprocal lattice and weights: K-POINTS                                
   0.00000000  0.00000000  0.00000000       0.111
   0.33333333  0.00000000  0.00000000       0.222
   0.00000000  0.33333333  0.00000000       0.222
   0.33333333  0.33333333  0.00000000       0.222
  -0.33333333  0.33333333  0.00000000       0.222
 
 position of ions in fractional coordinates (direct lattice) 
   0.00000000  0.00000000  0.41799748
   0.20000000  0.00000000  0.41799748
   0.40000000  0.00000000  0.41799748
   0.60000000  0.00000000  0.41799748
   0.80000000  0.00000000  0.41799748
   0.00000000  0.20000000  0.41799748
   0.20000000  0.20000000  0.41799748
   0.40000000  0.20000000  0.41799748
   0.60000000  0.20000000  0.41799748
   0.80000000  0.20000000  0.41799748
   0.00000000  0.40000000  0.41799748
   0.20000000  0.40000000  0.41799748
   0.40000000  0.40000000  0.41799748
   0.60000000  0.40000000  0.41799748
   0.80000000  0.40000000  0.41799748
   0.00000000  0.60000000  0.41799748
   0.20000000  0.60000000  0.41799748
   0.40000000  0.60000000  0.41799748
   0.60000000  0.60000000  0.41799748
   0.80000000  0.60000000  0.41799748
   0.00000000  0.80000000  0.41799748
   0.20000000  0.80000000  0.41799748
   0.40000000  0.80000000  0.41799748
   0.60000000  0.80000000  0.41799748
   0.80000000  0.80000000  0.41799748
   0.06666667  0.06666660  0.41800609
   0.26666667  0.06666660  0.41800609
   0.46666667  0.06666660  0.41800609
   0.66666667  0.06666660  0.41800609
   0.86666667  0.06666660  0.41800609
   0.06666667  0.26666660  0.41800609
   0.26666667  0.26666660  0.41800609
   0.46666667  0.26666660  0.41800609
   0.66666667  0.26666660  0.41800609
   0.86666667  0.26666660  0.41800609
   0.06666667  0.46666660  0.41800609
   0.26666667  0.46666660  0.41800609
   0.46666667  0.46666660  0.41800609
   0.66666667  0.46666660  0.41800609
   0.86666667  0.46666660  0.41800609
   0.06666667  0.66666660  0.41800609
   0.26666667  0.66666660  0.41800609
   0.46666667  0.66666660  0.41800609
   0.66585366  0.66666660  0.41800609
   0.86666667  0.66666660  0.41800609
   0.06666667  0.86666660  0.41800609
   0.26666667  0.86666660  0.41800609
   0.46666667  0.86666660  0.41800609
   0.66666667  0.86666660  0.41800609
   0.86666667  0.86666660  0.41800609
   0.40000000  0.40000000  0.46800609
 
 position of ions in cartesian coordinates  (Angst):
   0.00000000  0.00000000  8.35994958
   2.46000004  0.00000000  8.35994958
   4.92000008  0.00000000  8.35994958
   7.38000011  0.00000000  8.35994958
   9.84000015  0.00000000  8.35994958
   1.23000016  2.13042244  8.35994958
   3.69000020  2.13042244  8.35994958
   6.15000024  2.13042244  8.35994958
   8.61000028  2.13042244  8.35994958
  11.07000031  2.13042244  8.35994958
   2.46000032  4.26084489  8.35994958
   4.92000036  4.26084489  8.35994958
   7.38000040  4.26084489  8.35994958
   9.84000044  4.26084489  8.35994958
  12.30000047  4.26084489  8.35994958
   3.69000048  6.39126733  8.35994958
   6.15000052  6.39126733  8.35994958
   8.61000056  6.39126733  8.35994958
  11.07000060  6.39126733  8.35994958
  13.53000064  6.39126733  8.35994958
   4.92000064  8.52168978  8.35994958
   7.38000068  8.52168978  8.35994958
   9.84000072  8.52168978  8.35994958
  12.30000076  8.52168978  8.35994958
  14.76000080  8.52168978  8.35994958
   1.22999970  0.71014014  8.36012184
   3.68999974  0.71014014  8.36012184
   6.14999977  0.71014014  8.36012184
   8.60999981  0.71014014  8.36012184
  11.06999985  0.71014014  8.36012184
   2.45999986  2.84056258  8.36012184
   4.91999990  2.84056258  8.36012184
   7.37999994  2.84056258  8.36012184
   9.83999997  2.84056258  8.36012184
  12.30000001  2.84056258  8.36012184
   3.69000002  4.97098503  8.36012184
   6.15000006  4.97098503  8.36012184
   8.61000010  4.97098503  8.36012184
  11.07000013  4.97098503  8.36012184
  13.53000017  4.97098503  8.36012184
   4.92000018  7.10140747  8.36012184
   7.38000022  7.10140747  8.36012184
   9.84000026  7.10140747  8.36012184
  12.29000030  7.10140747  8.36012184
  14.76000033  7.10140747  8.36012184
   6.15000034  9.23182991  8.36012184
   8.61000038  9.23182991  8.36012184
  11.07000042  9.23182991  8.36012184
  13.53000046  9.23182991  8.36012184
  15.99000049  9.23182991  8.36012184
   7.38000040  4.26084489  9.36012184
 


--------------------------------------------------------------------------------------------------------


 k-point  1 :   0.0000 0.0000 0.0000  plane waves:   47639
 k-point  2 :   0.3333 0.0000 0.0000  plane waves:   47601
 k-point  3 :   0.0000 0.3333 0.0000  plane waves:   47601
 k-point  4 :   0.3333 0.3333 0.0000  plane waves:   47601
 k-point  5 :  -0.3333 0.3333 0.0000  plane waves:   47598

 maximum and minimum number of plane-waves per node :      5975     5928

 maximum number of plane-waves:     47639
 maximum index in each direction: 
   IXMAX=   20   IYMAX=   20   IZMAX=   32
   IXMIN=  -20   IYMIN=  -20   IZMIN=  -32


 parallel 3D FFT for wavefunctions:
    minimum data exchange during FFTs selected (reduces bandwidth)
 parallel 3D FFT for charge:
    minimum data exchange during FFTs selected (reduces bandwidth)


 total amount of memory used by VASP MPI-rank0    90113. kBytes
=======================================================================

   base      :      30000. kBytes
   nonl-proj :       8674. kBytes
   fftplans  :      26248. kBytes
   grid      :      14579. kBytes
   one-center:         21. kBytes
   wavefun   :      10591. kBytes
 
     INWAV:  cpu time    0.8501: real time    0.8506
 Broyden mixing: mesh for mixing (old mesh)
   NGX = 41   NGY = 41   NGZ = 65
  (NGX  =160   NGY  =160   NGZ  =280)
  gives a total of 109265 points

 initial charge density was supplied:
 number of electron     206.0000000 magnetization 
 keeping initial charge density in first step


--------------------------------------------------------------------------------------------------------


 Maximum index for augmentation-charges         1119 (set IRDMAX)


--------------------------------------------------------------------------------------------------------


 First call to EWALD:  gamma=   0.129
 Maximum number of real-space cells 3x 3x 2
 Maximum number of reciprocal cells 3x 3x 4

    FEWALD:  cpu time    0.0014: real time    0.0028


--------------------------------------- Iteration      1(   1)  ---------------------------------------


    POTLOK:  cpu time    0.1056: real time    0.1079
    SETDIJ:  cpu time    0.0819: real time    0.0828
     EDDAV:  cpu time    4.1000: real time    4.1108
       DOS:  cpu time    0.0004: real time    0.0005
    CHARGE:  cpu time    0.3961: real time    0.3962
    MIXING:  cpu time    0.0061: real time    0.0062
    --------------------------------------------
      LOOP:  cpu time    4.6903: real time    4.7045

 eigenvalue-minimisations  :  1356
 total energy-change (2. order) :-0.4532938E+03  (-0.2841312E+02)
 number of electron     206.0000000 magnetization 
 augmentation part        5.5092531 magnetization 

 Broyden mixing:
  rms(total) = 0.49944E-01    rms(broyden)= 0.49913E-01
  rms(prec ) = 0.51428E-01
  weight for this iteration     100.00

 Free energy of the ion-electron system (eV)
  ---------------------------------------------------
  alpha Z        PSCENC =        82.54348252
  Ewald energy   TEWEN  =     34516.58913248
  -Hartree energ DENC   =    -41034.89312711
  -exchange      EXHF   =         0.00000000
  -V(xc)+E(xc)   XCENC  =       721.38014798
  PAW double counting   =     22781.19595426   -22817.52509957
  entropy T*S    EENTRO =        -0.00053788
  eigenvalues    EBANDS =     -2491.20817392
  atomic energy  EATOM  =      7788.62438962
  Solvation  Ediel_sol  =         0.00000000
  ---------------------------------------------------
  free energy    TOTEN  =      -453.29383161 eV

  energy without entropy =     -453.29329374  energy(sigma->0) =     -453.29356267


--------------------------------------------------------------------------------------------------------




--------------------------------------- Iteration      1(   2)  ---------------------------------------


    POTLOK:  cpu time    0.0986: real time    0.0998
    SETDIJ:  cpu time    0.0802: real time    0.0821
    EDDIAG:  cpu time    0.8854: real time    0.8858
  RMM-DIIS:  cpu time    3.7242: real time    3.7294
    ORTHCH:  cpu time    0.0407: real time    0.0408
       DOS:  cpu time    0.0004: real time    0.0004
    CHARGE:  cpu time    0.3934: real time    0.3938
    MIXING:  cpu time    0.0057: real time    0.0057
    --------------------------------------------
      LOOP:  cpu time    5.2286: real time    5.2379

 eigenvalue-minimisations  :  1414
 total energy-change (2. order) :-0.9880902E+00  (-0.9905008E+00)
 number of electron     206.0000000 magnetization 
 augmentation part        5.5409866 magnetization 

 Broyden mixing:
  rms(total) = 0.20846E-01    rms(broyden)= 0.20789E-01
  rms(prec ) = 0.22297E-01
  weight for this iteration     100.00

 eigenvalues of (default mixing * dielectric matrix)
  average eigenvalue GAMMA=   0.7378
  0.7378

 Free energy of the ion-electron system (eV)
  ---------------------------------------------------
  alpha Z        PSCENC =        82.54348252
  Ewald energy   TEWEN  =     34516.58913248
  -Hartree energ DENC   =    -41032.34740412
  -exchange      EXHF   =         0.00000000
  -V(xc)+E(xc)   XCENC  =       721.27235851
  PAW double counting   =     22841.91698380   -22878.19463443
  entropy T*S    EENTRO =        -0.00009749
  eigenvalues    EBANDS =     -2494.68613273
  atomic energy  EATOM  =      7788.62438962
  Solvation  Ediel_sol  =         0.00000000
  ---------------------------------------------------
  free energy    TOTEN  =      -454.28192184 eV

  energy without entropy =     -454.28182435  energy(sigma->0) =     -454.28187309


--------------------------------------------------------------------------------------------------------




--------------------------------------- Iteration      1(   3)  ---------------------------------------


    POTLOK:  cpu time    0.1002: real time    0.1029
    SETDIJ:  cpu time    0.0797: real time    0.0812
    EDDIAG:  cpu time    0.8944: real time    0.8953
  RMM-DIIS:  cpu time    4.1778: real time    4.1820
    ORTHCH:  cpu time    0.0407: real time    0.0409
       DOS:  cpu time    0.0004: real time    0.0004
    CHARGE:  cpu time    0.3918: real time    0.3919
    MIXING:  cpu time    0.0044: real time    0.0044
    --------------------------------------------
      LOOP:  cpu time    5.6894: real time    5.6989

 eigenvalue-minimisations  :  1581
 total energy-change (2. order) :-0.5228060E-01  (-0.5858930E-01)
 number of electron     206.0000000 magnetization 
 augmentation part        5.5434062 magnetization 

 Broyden mixing:
  rms(total) = 0.15390E-01    rms(broyden)= 0.15375E-01
  rms(prec ) = 0.15955E-01
  weight for this iteration     100.00

 eigenvalues of (default mixing * dielectric matrix)
  average eigenvalue GAMMA=   0.6766
  0.6766  0.6766

 Free energy of the ion-electron system (eV)
  ---------------------------------------------------
  alpha Z        PSCENC =        82.54348252
  Ewald energy   TEWEN  =     34516.58913248
  -Hartree energ DENC   =    -41033.05352199
  -exchange      EXHF   =         0.00000000
  -V(xc)+E(xc)   XCENC  =       721.30520152
  PAW double counting   =     22830.77487440   -22867.06741435
  entropy T*S    EENTRO =        -0.00012828
  eigenvalues    EBANDS =     -2494.05021835
  atomic energy  EATOM  =      7788.62438962
  Solvation  Ediel_sol  =         0.00000000
  ---------------------------------------------------
  free energy    TOTEN  =      -454.33420243 eV

  energy without entropy =     -454.33407416  energy(sigma->0) =     -454.33413830


--------------------------------------------------------------------------------------------------------




--------------------------------------- Iteration      1(   4)  ---------------------------------------


    POTLOK:  cpu time    0.0975: real time    0.0984
    SETDIJ:  cpu time    0.0795: real time    0.0799
    EDDIAG:  cpu time    0.8907: real time    0.8908
  RMM-DIIS:  cpu time    4.1203: real time    4.1253
    ORTHCH:  cpu time    0.0409: real time    0.0410
       DOS:  cpu time    0.0004: real time    0.0004
    CHARGE:  cpu time    0.3923: real time    0.3923
    MIXING:  cpu time    0.0041: real time    0.0041
    --------------------------------------------
      LOOP:  cpu time    5.6255: real time    5.6323

 eigenvalue-minimisations  :  1574
 total energy-change (2. order) :-0.3878674E-02  (-0.4072853E-02)
 number of electron     206.0000000 magnetization 
 augmentation part        5.5459588 magnetization 

 Broyden mixing:
  rms(total) = 0.15208E-01    rms(broyden)= 0.15207E-01
  rms(prec ) = 0.15688E-01
  weight for this iteration     100.00

 eigenvalues of (default mixing * dielectric matrix)
  average eigenvalue GAMMA=   0.9784
  1.1922  1.1922  0.5507

 Free energy of the ion-electron system (eV)
  ---------------------------------------------------
  alpha Z        PSCENC =        82.54348252
  Ewald energy   TEWEN  =     34516.58913248
  -Hartree energ DENC   =    -41033.38955432
  -exchange      EXHF   =         0.00000000
  -V(xc)+E(xc)   XCENC  =       721.32030107
  PAW double counting   =     22822.12448219   -22858.42461992
  entropy T*S    EENTRO =        -0.00011091
  eigenvalues    EBANDS =     -2493.72558384
  atomic energy  EATOM  =      7788.62438962
  Solvation  Ediel_sol  =         0.00000000
  ---------------------------------------------------
  free energy    TOTEN  =      -454.33808111 eV

  energy without entropy =     -454.33797020  energy(sigma->0) =     -454.33802565


--------------------------------------------------------------------------------------------------------




--------------------------------------- Iteration      1(   5)  ---------------------------------------


    POTLOK:  cpu time    0.0976: real time    0.0978
    SETDIJ:  cpu time    0.0872: real time    0.0872
    EDDIAG:  cpu time    0.8827: real time    0.8832
  RMM-DIIS:  cpu time    3.9845: real time    3.9888
    ORTHCH:  cpu time    0.0410: real time    0.0411
       DOS:  cpu time    0.0004: real time    0.0004
    CHARGE:  cpu time    0.3939: real time    0.3940
    MIXING:  cpu time    0.0049: real time    0.0049
    --------------------------------------------
      LOOP:  cpu time    5.4920: real time    5.4974

 eigenvalue-minimisations  :  1514
 total energy-change (2. order) :-0.1064396E-03  (-0.3175096E-03)
 number of electron     206.0000000 magnetization 
 augmentation part        5.5449529 magnetization 

 Broyden mixing:
  rms(total) = 0.62108E-02    rms(broyden)= 0.62099E-02
  rms(prec ) = 0.63767E-02
  weight for this iteration     100.00

 eigenvalues of (default mixing * dielectric matrix)
  average eigenvalue GAMMA=   1.1590
  1.5169  1.5169  0.5668  1.0352

 Free energy of the ion-electron system (eV)
  ---------------------------------------------------
  alpha Z        PSCENC =        82.54348252
  Ewald energy   TEWEN  =     34516.58913248
  -Hartree energ DENC   =    -41034.28710038
  -exchange      EXHF   =         0.00000000
  -V(xc)+E(xc)   XCENC  =       721.35784144
  PAW double counting   =     22795.30948484   -22831.62908369
  entropy T*S    EENTRO =        -0.00011455
  eigenvalues    EBANDS =     -2492.84621982
  atomic energy  EATOM  =      7788.62438962
  Solvation  Ediel_sol  =         0.00000000
  ---------------------------------------------------
  free energy    TOTEN  =      -454.33818755 eV

  energy without entropy =     -454.33807300  energy(sigma->0) =     -454.33813027


--------------------------------------------------------------------------------------------------------




--------------------------------------- Iteration      1(   6)  ---------------------------------------


    POTLOK:  cpu time    0.0983: real time    0.1010
    SETDIJ:  cpu time    0.0796: real time    0.0810
    EDDIAG:  cpu time    0.8827: real time    0.8837
  RMM-DIIS:  cpu time    4.0607: real time    4.0641
    ORTHCH:  cpu time    0.0408: real time    0.0408
       DOS:  cpu time    0.0003: real time    0.0003
    CHARGE:  cpu time    0.3939: real time    0.3940
    MIXING:  cpu time    0.0053: real time    0.0053
    --------------------------------------------
      LOOP:  cpu time    5.5616: real time    5.5702

 eigenvalue-minimisations  :  1531
 total energy-change (2. order) :-0.2490038E-04  (-0.4969995E-04)
 number of electron     206.0000000 magnetization 
 augmentation part        5.5443210 magnetization 

 Broyden mixing:
  rms(total) = 0.14573E-02    rms(broyden)= 0.14554E-02
  rms(prec ) = 0.15159E-02
  weight for this iteration     100.00

 eigenvalues of (default mixing * dielectric matrix)
  average eigenvalue GAMMA=   1.2143
  2.1164  1.2208  1.2208  0.9478  0.5659

 Free energy of the ion-electron system (eV)
  ---------------------------------------------------
  alpha Z        PSCENC =        82.54348252
  Ewald energy   TEWEN  =     34516.58913248
  -Hartree energ DENC   =    -41034.95706770
  -exchange      EXHF   =         0.00000000
  -V(xc)+E(xc)   XCENC  =       721.38577904
  PAW double counting   =     22775.50828537   -22811.84140324
  entropy T*S    EENTRO =        -0.00011597
  eigenvalues    EBANDS =     -2492.19069456
  atomic energy  EATOM  =      7788.62438962
  Solvation  Ediel_sol  =         0.00000000
  ---------------------------------------------------
  free energy    TOTEN  =      -454.33821245 eV

  energy without entropy =     -454.33809648  energy(sigma->0) =     -454.33815446


--------------------------------------------------------------------------------------------------------




--------------------------------------- Iteration      1(   7)  ---------------------------------------


    POTLOK:  cpu time    0.0982: real time    0.0983
    SETDIJ:  cpu time    0.0862: real time    0.0862
    EDDIAG:  cpu time    0.8970: real time    0.8974
  RMM-DIIS:  cpu time    2.9422: real time    2.9436
    ORTHCH:  cpu time    0.0412: real time    0.0412
       DOS:  cpu time    0.0003: real time    0.0003
    --------------------------------------------
      LOOP:  cpu time    4.0650: real time    4.0670

 eigenvalue-minimisations  :  1038
 total energy-change (2. order) :-0.7773600E-05  (-0.2264175E-05)
 number of electron     206.0000000 magnetization 
 augmentation part        5.5443210 magnetization 

 Free energy of the ion-electron system (eV)
  ---------------------------------------------------
  alpha Z        PSCENC =        82.54348252
  Ewald energy   TEWEN  =     34516.58913248
  -Hartree energ DENC   =    -41034.96535260
  -exchange      EXHF   =         0.00000000
  -V(xc)+E(xc)   XCENC  =       721.38566571
  PAW double counting   =     22777.00432807   -22813.33666836
  entropy T*S    EENTRO =        -0.00011691
  eigenvalues    EBANDS =     -2492.18308075
  atomic energy  EATOM  =      7788.62438962
  Solvation  Ediel_sol  =         0.00000000
  ---------------------------------------------------
  free energy    TOTEN  =      -454.33822022 eV

  energy without entropy =     -454.33810332  energy(sigma->0) =     -454.33816177


--------------------------------------------------------------------------------------------------------




 average (electrostatic) potential at core
  the test charge radii are     0.6991  0.7215
  (the norm of the test charge is              1.0000)
       1 -58.2594       2 -58.2588       3 -58.2010       4 -58.0594       5 -58.2035
       6 -58.2589       7 -58.2744       8 -58.1321       9 -58.1328      10 -58.2756
      11 -58.2008      12 -58.1314      13 -60.6863      14 -58.1356      15 -58.2024
      16 -58.0578      17 -58.1318      18 -58.1337      19 -58.0583      20 -58.0653
      21 -58.2030      22 -58.2750      23 -58.2026      24 -58.0645      25 -58.0650
      26 -58.3809      27 -58.2910      28 -58.2207      29 -58.2213      30 -58.2920
      31 -58.2914      32 -58.3136      33 -58.8099      34 -58.3142      35 -58.2916
      36 -58.2193      37 -58.8092      38 -58.8155      39 -58.2246      40 -58.2195
      41 -58.2211      42 -58.3136      43 -58.2215      44 -58.1640      45 -58.1638
      46 -58.2920      47 -58.2921      48 -58.2194      49 -58.1664      50 -58.2225
      51 -81.5755
 
 
 
 E-fermi :  -3.0166     XC(G=0):  -2.2103     alpha+bet : -1.9409


 k-point     1 :       0.0000    0.0000    0.0000
  band No.  band energies     occupation 
      1     -31.7407      2.00000
      2     -22.2707      2.00000
      3     -21.5046      2.00000
      4     -21.5028      2.00000
      5     -21.3976      2.00000
      6     -21.3937      2.00000
      7     -21.3898      2.00000
      8     -20.8717      2.00000
      9     -19.8800      2.00000
     10     -19.8751      2.00000
     11     -19.5537      2.00000
     12     -19.5488      2.00000
     13     -19.5388      2.00000
     14     -19.1859      2.00000
     15     -18.9012      2.00000
     16     -18.8985      2.00000
     17     -18.6491      2.00000
     18     -18.6426      2.00000
     19     -18.6369      2.00000
     20     -17.8863      2.00000
     21     -17.0212      2.00000
     22     -17.0200      2.00000
     23     -16.4776      2.00000
     24     -16.4612      2.00000
     25     -16.4577      2.00000
     26     -16.0485      2.00000
     27     -16.0016      2.00000
     28     -15.9909      2.00000
     29     -15.4976      2.00000
     30     -15.4952      2.00000
     31     -15.4933      2.00000
     32     -15.0886      2.00000
     33     -14.6292      2.00000
     34     -14.6270      2.00000
     35     -14.1525      2.00000
     36     -14.1491      2.00000
     37     -14.1454      2.00000
     38     -13.9630      2.00000
     39     -12.9916      2.00000
     40     -12.9883      2.00000
     41     -12.0364      2.00000
     42     -11.7660      2.00000
     43     -11.7639      2.00000
     44     -11.7608      2.00000
     45     -11.6922      2.00000
     46     -11.6861      2.00000
     47     -11.6539      2.00000
     48     -11.6522      2.00000
     49     -11.6453      2.00000
     50     -11.6435      2.00000
     51     -10.8016      2.00000
     52     -10.8004      2.00000
     53     -10.4310      2.00000
     54     -10.3340      2.00000
     55     -10.2919      2.00000
     56     -10.2889      2.00000
     57     -10.2670      2.00000
     58     -10.0773      2.00000
     59      -9.6946      2.00000
     60      -9.6832      2.00000
     61      -9.3257      2.00000
     62      -9.3253      2.00000
     63      -9.2984      2.00000
     64      -9.2840      2.00000
     65      -9.2785      2.00000
     66      -9.0458      2.00000
     67      -9.0039      2.00000
     68      -9.0001      2.00000
     69      -8.9459      2.00000
     70      -8.9428      2.00000
     71      -8.9397      2.00000
     72      -8.9391      2.00000
     73      -8.9182      2.00000
     74      -8.9094      2.00000
     75      -8.8952      2.00000
     76      -8.4355      2.00000
     77      -7.8052      2.00000
     78      -7.7996      2.00000
     79      -7.3349      2.00000
     80      -7.3183      2.00000
     81      -7.3098      2.00000
     82      -7.3026      2.00000
     83      -7.2987      2.00000
     84      -7.2945      2.00000
     85      -7.1660      2.00000
     86      -7.1606      2.00000
     87      -7.1549      2.00000
     88      -6.7481      2.00000
     89      -6.5073      2.00000
     90      -6.5062      2.00000
     91      -6.2663      2.00000
     92      -6.2484      2.00000
     93      -6.2427      2.00000
     94      -5.9287      2.00000
     95      -5.9148      2.00000
     96      -5.1980      2.00000
     97      -4.7638      2.00000
     98      -4.7603      2.00000
     99      -4.2705      2.00000
    100      -4.2699      2.00000
    101      -4.2660      2.00000
    102      -3.2160      2.00000
    103      -3.2133      2.00000
    104      -2.9159      0.00439
    105      -1.4613      0.00000
    106      -1.4568      0.00000
    107      -1.4522      0.00000
    108      -0.9976      0.00000
    109      -0.9892      0.00000
    110      -0.5398      0.00000
    111       0.4102      0.00000
    112       0.4202      0.00000
    113       0.4257      0.00000
    114       0.5620      0.00000
    115       0.8438      0.00000
    116       0.8450      0.00000
    117       1.2917      0.00000
    118       1.3391      0.00000
    119       1.6813      0.00000
    120       1.8011      0.00000
    121       1.8031      0.00000
    122       1.8039      0.00000
    123       1.8241      0.00000
    124       1.8279      0.00000
    125       2.0304      0.00000
    126       2.1767      0.00000
    127       2.1797      0.00000
    128       2.1861      0.00000
    129       2.3441      0.00000
    130       2.3500      0.00000
    131       2.6125      0.00000
    132       2.6469      0.00000

 k-point     2 :       0.3333    0.0000    0.0000
  band No.  band energies     occupation 
      1     -31.7408      2.00000
      2     -22.1883      2.00000
      3     -21.8699      2.00000
      4     -21.6622      2.00000
      5     -21.4526      2.00000
      6     -21.0353      2.00000
      7     -20.8964      2.00000
      8     -20.7252      2.00000
      9     -20.4211      2.00000
     10     -20.1631      2.00000
     11     -19.7856      2.00000
     12     -19.7019      2.00000
     13     -19.3250      2.00000
     14     -19.2419      2.00000
     15     -19.0615      2.00000
     16     -18.5932      2.00000
     17     -18.4560      2.00000
     18     -18.1206      2.00000
     19     -18.0633      2.00000
     20     -17.5908      2.00000
     21     -17.4974      2.00000
     22     -17.2996      2.00000
     23     -17.2780      2.00000
     24     -16.8518      2.00000
     25     -16.6593      2.00000
     26     -16.1746      2.00000
     27     -15.9783      2.00000
     28     -15.8447      2.00000
     29     -15.2995      2.00000
     30     -15.1713      2.00000
     31     -15.1349      2.00000
     32     -14.8853      2.00000
     33     -14.7799      2.00000
     34     -14.4775      2.00000
     35     -14.4557      2.00000
     36     -13.7656      2.00000
     37     -13.7605      2.00000
     38     -13.1969      2.00000
     39     -13.0886      2.00000
     40     -12.9336      2.00000
     41     -12.9016      2.00000
     42     -12.5854      2.00000
     43     -12.5488      2.00000
     44     -12.3916      2.00000
     45     -12.0210      2.00000
     46     -11.6653      2.00000
     47     -11.4484      2.00000
     48     -11.2954      2.00000
     49     -11.1223      2.00000
     50     -10.9106      2.00000
     51     -10.8542      2.00000
     52     -10.5838      2.00000
     53     -10.5317      2.00000
     54     -10.2842      2.00000
     55     -10.2364      2.00000
     56     -10.1632      2.00000
     57     -10.0484      2.00000
     58      -9.8539      2.00000
     59      -9.8193      2.00000
     60      -9.6546      2.00000
     61      -9.6056      2.00000
     62      -9.5612      2.00000
     63      -9.5251      2.00000
     64      -9.3715      2.00000
     65      -9.3395      2.00000
     66      -9.2585      2.00000
     67      -9.1741      2.00000
     68      -9.0986      2.00000
     69      -9.0802      2.00000
     70      -8.8650      2.00000
     71      -8.7138      2.00000
     72      -8.6643      2.00000
     73      -8.5033      2.00000
     74      -8.4035      2.00000
     75      -8.2887      2.00000
     76      -8.1348      2.00000
     77      -8.0922      2.00000
     78      -8.0664      2.00000
     79      -7.9745      2.00000
     80      -7.8084      2.00000
     81      -7.6208      2.00000
     82      -7.3600      2.00000
     83      -7.3378      2.00000
     84      -7.2592      2.00000
     85      -7.1953      2.00000
     86      -6.9189      2.00000
     87      -6.8724      2.00000
     88      -6.6966      2.00000
     89      -6.5899      2.00000
     90      -6.3424      2.00000
     91      -6.1879      2.00000
     92      -6.0759      2.00000
     93      -5.9197      2.00000
     94      -5.7381      2.00000
     95      -5.6420      2.00000
     96      -5.3238      2.00000
     97      -5.1126      2.00000
     98      -4.9710      2.00000
     99      -4.9242      2.00000
    100      -4.2697      2.00000
    101      -4.1686      2.00000
    102      -3.3366      2.00000
    103      -3.1355      1.99923
    104      -2.8043      0.00000
    105      -1.5931      0.00000
    106      -1.4236      0.00000
    107      -0.8366      0.00000
    108      -0.8184      0.00000
    109      -0.7048      0.00000
    110      -0.6690      0.00000
    111      -0.1264      0.00000
    112      -0.0088      0.00000
    113       0.2911      0.00000
    114       0.7044      0.00000
    115       0.7285      0.00000
    116       1.0993      0.00000
    117       1.1749      0.00000
    118       1.3642      0.00000
    119       1.4626      0.00000
    120       1.5369      0.00000
    121       1.5703      0.00000
    122       1.6372      0.00000
    123       1.8309      0.00000
    124       1.9116      0.00000
    125       2.0382      0.00000
    126       2.2225      0.00000
    127       2.2717      0.00000
    128       2.3294      0.00000
    129       2.3390      0.00000
    130       2.3949      0.00000
    131       2.4575      0.00000
    132       2.7955      0.00000

 k-point     3 :       0.0000    0.3333    0.0000
  band No.  band energies     occupation 
      1     -31.7408      2.00000
      2     -22.1886      2.00000
      3     -21.8686      2.00000
      4     -21.6629      2.00000
      5     -21.4530      2.00000
      6     -21.0364      2.00000
      7     -20.8940      2.00000
      8     -20.7268      2.00000
      9     -20.4226      2.00000
     10     -20.1610      2.00000
     11     -19.7845      2.00000
     12     -19.7010      2.00000
     13     -19.3250      2.00000
     14     -19.2443      2.00000
     15     -19.0620      2.00000
     16     -18.5938      2.00000
     17     -18.4551      2.00000
     18     -18.1237      2.00000
     19     -18.0611      2.00000
     20     -17.5886      2.00000
     21     -17.4982      2.00000
     22     -17.2974      2.00000
     23     -17.2794      2.00000
     24     -16.8514      2.00000
     25     -16.6581      2.00000
     26     -16.1766      2.00000
     27     -15.9774      2.00000
     28     -15.8482      2.00000
     29     -15.3000      2.00000
     30     -15.1720      2.00000
     31     -15.1327      2.00000
     32     -14.8848      2.00000
     33     -14.7796      2.00000
     34     -14.4742      2.00000
     35     -14.4576      2.00000
     36     -13.7674      2.00000
     37     -13.7582      2.00000
     38     -13.1966      2.00000
     39     -13.0903      2.00000
     40     -12.9349      2.00000
     41     -12.9017      2.00000
     42     -12.5832      2.00000
     43     -12.5519      2.00000
     44     -12.3892      2.00000
     45     -12.0222      2.00000
     46     -11.6640      2.00000
     47     -11.4488      2.00000
     48     -11.2957      2.00000
     49     -11.1217      2.00000
     50     -10.9130      2.00000
     51     -10.8531      2.00000
     52     -10.5826      2.00000
     53     -10.5311      2.00000
     54     -10.2842      2.00000
     55     -10.2367      2.00000
     56     -10.1645      2.00000
     57     -10.0481      2.00000
     58      -9.8529      2.00000
     59      -9.8179      2.00000
     60      -9.6544      2.00000
     61      -9.6063      2.00000
     62      -9.5613      2.00000
     63      -9.5262      2.00000
     64      -9.3715      2.00000
     65      -9.3403      2.00000
     66      -9.2586      2.00000
     67      -9.1730      2.00000
     68      -9.1025      2.00000
     69      -9.0807      2.00000
     70      -8.8656      2.00000
     71      -8.7121      2.00000
     72      -8.6620      2.00000
     73      -8.5040      2.00000
     74      -8.4007      2.00000
     75      -8.2886      2.00000
     76      -8.1352      2.00000
     77      -8.0905      2.00000
     78      -8.0668      2.00000
     79      -7.9729      2.00000
     80      -7.8069      2.00000
     81      -7.6204      2.00000
     82      -7.3589      2.00000
     83      -7.3392      2.00000
     84      -7.2665      2.00000
     85      -7.1968      2.00000
     86      -6.9187      2.00000
     87      -6.8733      2.00000
     88      -6.6926      2.00000
     89      -6.5911      2.00000
     90      -6.3479      2.00000
     91      -6.1844      2.00000
     92      -6.0741      2.00000
     93      -5.9184      2.00000
     94      -5.7405      2.00000
     95      -5.6416      2.00000
     96      -5.3201      2.00000
     97      -5.1148      2.00000
     98      -4.9681      2.00000
     99      -4.9247      2.00000
    100      -4.2703      2.00000
    101      -4.1691      2.00000
    102      -3.3363      2.00000
    103      -3.1370      1.99934
    104      -2.8045      0.00000
    105      -1.5916      0.00000
    106      -1.4223      0.00000
    107      -0.8377      0.00000
    108      -0.8159      0.00000
    109      -0.7094      0.00000
    110      -0.6683      0.00000
    111      -0.1290      0.00000
    112      -0.0060      0.00000
    113       0.2907      0.00000
    114       0.7043      0.00000
    115       0.7275      0.00000
    116       1.1000      0.00000
    117       1.1759      0.00000
    118       1.3661      0.00000
    119       1.4634      0.00000
    120       1.5368      0.00000
    121       1.5698      0.00000
    122       1.6368      0.00000
    123       1.8318      0.00000
    124       1.9130      0.00000
    125       2.0446      0.00000
    126       2.2254      0.00000
    127       2.2747      0.00000
    128       2.3362      0.00000
    129       2.4266      0.00000
    130       2.7389      0.00000
    131       3.2539      0.00000
    132       3.6106      0.00000

 k-point     4 :       0.3333    0.3333    0.0000
  band No.  band energies     occupation 
      1     -31.7408      2.00000
      2     -22.1888      2.00000
      3     -21.8684      2.00000
      4     -21.6607      2.00000
      5     -21.4568      2.00000
      6     -21.0339      2.00000
      7     -20.8960      2.00000
      8     -20.7255      2.00000
      9     -20.4193      2.00000
     10     -20.1644      2.00000
     11     -19.7875      2.00000
     12     -19.6989      2.00000
     13     -19.3278      2.00000
     14     -19.2417      2.00000
     15     -19.0603      2.00000
     16     -18.5920      2.00000
     17     -18.4572      2.00000
     18     -18.1197      2.00000
     19     -18.0658      2.00000
     20     -17.5892      2.00000
     21     -17.4972      2.00000
     22     -17.2999      2.00000
     23     -17.2756      2.00000
     24     -16.8519      2.00000
     25     -16.6586      2.00000
     26     -16.1835      2.00000
     27     -15.9775      2.00000
     28     -15.8427      2.00000
     29     -15.2966      2.00000
     30     -15.1699      2.00000
     31     -15.1333      2.00000
     32     -14.8856      2.00000
     33     -14.7797      2.00000
     34     -14.4796      2.00000
     35     -14.4546      2.00000
     36     -13.7693      2.00000
     37     -13.7582      2.00000
     38     -13.1958      2.00000
     39     -13.0865      2.00000
     40     -12.9335      2.00000
     41     -12.9062      2.00000
     42     -12.5847      2.00000
     43     -12.5544      2.00000
     44     -12.3885      2.00000
     45     -12.0200      2.00000
     46     -11.6645      2.00000
     47     -11.4492      2.00000
     48     -11.2936      2.00000
     49     -11.1206      2.00000
     50     -10.9144      2.00000
     51     -10.8466      2.00000
     52     -10.5860      2.00000
     53     -10.5324      2.00000
     54     -10.2862      2.00000
     55     -10.2368      2.00000
     56     -10.1593      2.00000
     57     -10.0507      2.00000
     58      -9.8528      2.00000
     59      -9.8174      2.00000
     60      -9.6531      2.00000
     61      -9.6071      2.00000
     62      -9.5682      2.00000
     63      -9.5266      2.00000
     64      -9.3708      2.00000
     65      -9.3417      2.00000
     66      -9.2609      2.00000
     67      -9.1749      2.00000
     68      -9.0988      2.00000
     69      -9.0846      2.00000
     70      -8.8623      2.00000
     71      -8.7053      2.00000
     72      -8.6639      2.00000
     73      -8.5034      2.00000
     74      -8.3996      2.00000
     75      -8.2874      2.00000
     76      -8.1321      2.00000
     77      -8.0936      2.00000
     78      -8.0640      2.00000
     79      -7.9662      2.00000
     80      -7.8092      2.00000
     81      -7.6252      2.00000
     82      -7.3607      2.00000
     83      -7.3365      2.00000
     84      -7.2740      2.00000
     85      -7.1964      2.00000
     86      -6.9229      2.00000
     87      -6.8721      2.00000
     88      -6.6901      2.00000
     89      -6.5916      2.00000
     90      -6.3531      2.00000
     91      -6.1793      2.00000
     92      -6.0706      2.00000
     93      -5.9207      2.00000
     94      -5.7382      2.00000
     95      -5.6427      2.00000
     96      -5.3200      2.00000
     97      -5.1143      2.00000
     98      -4.9681      2.00000
     99      -4.9220      2.00000
    100      -4.2745      2.00000
    101      -4.1689      2.00000
    102      -3.3390      2.00000
    103      -3.1356      1.99924
    104      -2.8027      0.00000
    105      -1.5912      0.00000
    106      -1.4192      0.00000
    107      -0.8401      0.00000
    108      -0.8185      0.00000
    109      -0.7089      0.00000
    110      -0.6671      0.00000
    111      -0.1298      0.00000
    112      -0.0050      0.00000
    113       0.2897      0.00000
    114       0.7045      0.00000
    115       0.7278      0.00000
    116       1.0991      0.00000
    117       1.1745      0.00000
    118       1.3667      0.00000
    119       1.4644      0.00000
    120       1.5625      0.00000
    121       1.5813      0.00000
    122       1.7512      0.00000
    123       1.8322      0.00000
    124       2.1796      0.00000
    125       2.3357      0.00000
    126       2.3970      0.00000
    127       2.6189      0.00000
    128       2.7879      0.00000
    129       2.8471      0.00000
    130       3.2036      0.00000
    131       3.5954      0.00000
    132       4.1675      0.00000

 k-point     5 :      -0.3333    0.3333    0.0000
  band No.  band energies     occupation 
      1     -31.7408      2.00000
      2     -22.0802      2.00000
      3     -22.0068      2.00000
      4     -21.8025      2.00000
      5     -21.1737      2.00000
      6     -21.1478      2.00000
      7     -20.8668      2.00000
      8     -20.4133      2.00000
      9     -20.3402      2.00000
     10     -20.1719      2.00000
     11     -20.1530      2.00000
     12     -20.1373      2.00000
     13     -19.5687      2.00000
     14     -18.8264      2.00000
     15     -18.6735      2.00000
     16     -18.3707      2.00000
     17     -18.3483      2.00000
     18     -18.3385      2.00000
     19     -17.9294      2.00000
     20     -17.8016      2.00000
     21     -17.5997      2.00000
     22     -17.2615      2.00000
     23     -17.1529      2.00000
     24     -17.1198      2.00000
     25     -16.5435      2.00000
     26     -16.4381      2.00000
     27     -16.2848      2.00000
     28     -15.8085      2.00000
     29     -15.6289      2.00000
     30     -15.1759      2.00000
     31     -14.9703      2.00000
     32     -14.6507      2.00000
     33     -13.9602      2.00000
     34     -13.9386      2.00000
     35     -13.9231      2.00000
     36     -13.8731      2.00000
     37     -13.8645      2.00000
     38     -13.7920      2.00000
     39     -13.6738      2.00000
     40     -13.4933      2.00000
     41     -13.0372      2.00000
     42     -12.4767      2.00000
     43     -12.2529      2.00000
     44     -12.0741      2.00000
     45     -11.8206      2.00000
     46     -11.7728      2.00000
     47     -11.5642      2.00000
     48     -11.5479      2.00000
     49     -11.5207      2.00000
     50     -10.9289      2.00000
     51     -10.8177      2.00000
     52     -10.5308      2.00000
     53     -10.2060      2.00000
     54     -10.2023      2.00000
     55     -10.1926      2.00000
     56     -10.0947      2.00000
     57     -10.0539      2.00000
     58     -10.0211      2.00000
     59      -9.9066      2.00000
     60      -9.7523      2.00000
     61      -9.7444      2.00000
     62      -9.5642      2.00000
     63      -9.4391      2.00000
     64      -9.4073      2.00000
     65      -9.1961      2.00000
     66      -9.0466      2.00000
     67      -9.0345      2.00000
     68      -8.9011      2.00000
     69      -8.8851      2.00000
     70      -8.6855      2.00000
     71      -8.6421      2.00000
     72      -8.6315      2.00000
     73      -8.6252      2.00000
     74      -8.5805      2.00000
     75      -8.3727      2.00000
     76      -8.2490      2.00000
     77      -8.1693      2.00000
     78      -8.0349      2.00000
     79      -7.9843      2.00000
     80      -7.8797      2.00000
     81      -7.8606      2.00000
     82      -7.8508      2.00000
     83      -7.2249      2.00000
     84      -7.1827      2.00000
     85      -7.1289      2.00000
     86      -6.8879      2.00000
     87      -6.7226      2.00000
     88      -6.6115      2.00000
     89      -6.4560      2.00000
     90      -6.2688      2.00000
     91      -6.1005      2.00000
     92      -5.9174      2.00000
     93      -5.9101      2.00000
     94      -5.8992      2.00000
     95      -5.4525      2.00000
     96      -5.4242      2.00000
     97      -5.1197      2.00000
     98      -5.0147      2.00000
     99      -4.9797      2.00000
    100      -4.9587      2.00000
    101      -3.7344      2.00000
    102      -3.4575      2.00000
    103      -3.2808      2.00000
    104      -2.3858      0.00000
    105      -2.2246      0.00000
    106      -0.9262      0.00000
    107      -0.8829      0.00000
    108      -0.8671      0.00000
    109      -0.5403      0.00000
    110      -0.2637      0.00000
    111      -0.2106      0.00000
    112       0.2513      0.00000
    113       0.2562      0.00000
    114       0.2653      0.00000
    115       0.5949      0.00000
    116       0.7936      0.00000
    117       0.9482      0.00000
    118       0.9743      0.00000
    119       1.0602      0.00000
    120       1.7328      0.00000
    121       1.7455      0.00000
    122       1.7695      0.00000
    123       1.8259      0.00000
    124       2.1180      0.00000
    125       2.1231      0.00000
    126       2.1288      0.00000
    127       2.2463      0.00000
    128       2.2471      0.00000
    129       2.3614      0.00000
    130       3.0008      0.00000
    131       3.0122      0.00000
    132       3.0391      0.00000


--------------------------------------------------------------------------------------------------------


 soft charge-density along one line, spin component           1
         0         1         2         3         4         5         6         7         8         9
 total charge-density along one line
 
 pseudopotential strength for first ion, spin component:           1
 10.222  13.593   0.000  -0.000   0.000  -0.000   0.000  -0.000
 13.593  18.076   0.000  -0.000   0.000  -0.000   0.000  -0.000
  0.000   0.000  -4.352  -0.000  -0.000   8.512   0.000   0.000
 -0.000  -0.000  -0.000  -4.344  -0.000   0.000   8.502   0.000
  0.000   0.000  -0.000  -0.000  -4.352   0.000   0.000   8.513
 -0.000  -0.000   8.512   0.000   0.000 -18.786  -0.000  -0.000
  0.000   0.000   0.000   8.502   0.000  -0.000 -18.776  -0.000
 -0.000  -0.000   0.000   0.000   8.513  -0.000  -0.000 -18.787
 total augmentation occupancy for first ion, spin component:           1
  8.358  -3.741   0.001   0.000   0.003   0.000   0.000   0.001
 -3.741   1.730  -0.002  -0.000  -0.003  -0.000   0.000  -0.000
  0.001  -0.002   1.840  -0.000  -0.001   0.174   0.000   0.000
  0.000  -0.000  -0.000   1.223  -0.000   0.000   0.078   0.000
  0.003  -0.003  -0.001  -0.000   1.839   0.000   0.000   0.174
  0.000  -0.000   0.174   0.000   0.000   0.018   0.000   0.000
  0.000   0.000   0.000   0.078   0.000   0.000   0.005   0.000
  0.001  -0.000   0.000   0.000   0.174   0.000   0.000   0.018


------------------------ aborting loop because EDIFF is reached ----------------------------------------


    CHARGE:  cpu time    0.4076: real time    0.4080
    FORLOC:  cpu time    0.0270: real time    0.0270
    FORNL :  cpu time    1.9622: real time    1.9632
    STRESS:  cpu time    3.3176: real time    3.3189
    FORCOR:  cpu time    0.1213: real time    0.1213
    FORHAR:  cpu time    0.0484: real time    0.0484
    MIXING:  cpu time    0.0035: real time    0.0035
    OFIELD:  cpu time    0.0001: real time    0.0001

  FORCE on cell =-STRESS in cart. coord.  units (eV):
  Direction    XX          YY          ZZ          XY          YZ          ZX
  --------------------------------------------------------------------------------------
  Alpha Z    82.54348    82.54348    82.54348
  Ewald   41234.50521 41234.52612-47952.46286     2.32459    -0.01834    -0.03193
  Hartree 40516.65656 40516.69633-39998.58753     0.40288    -0.01469    -0.02376
  E(xc)    -777.15554  -777.15551  -804.23510     0.00690    -0.00003    -0.00004
  Local  -83988.78702-83988.87923 85337.37031    -2.28333     0.03103     0.05111
  n-local  -203.93008  -203.93581  -194.69364     0.02359    -0.00082    -0.00238
  augment   -12.38237   -12.37972   -14.04722    -0.00543     0.00016     0.00024
  Kinetic  3164.11623  3164.12720  3596.28074    -0.36419     0.01198     0.02787
  Fock        0.00000     0.00000     0.00000     0.00000     0.00000     0.00000
  -------------------------------------------------------------------------------------
  Total      15.56648    15.54285    52.16817     0.10501     0.00931     0.02111
  in kB       9.51766     9.50321    31.89667     0.06421     0.00569     0.01291
  external pressure =       16.97 kB  Pullay stress =        0.00 kB


 VOLUME and BASIS-vectors are now :
 -----------------------------------------------------------------------------
  energy-cutoff  :      400.00
  volume of cell :     2620.42
      direct lattice vectors                 reciprocal lattice vectors
    12.300000191  0.000000000  0.000000000     0.081300812 -0.046939053  0.000000000
     6.150000804 10.652112223  0.000000000     0.000000000  0.093878095  0.000000000
     0.000000000  0.000000000 20.000000000     0.000000000  0.000000000  0.050000000

  length of vectors
    12.300000191 12.300000191 20.000000000     0.093878095  0.093878095  0.050000000


 FORCES acting on ions
    electron-ion (+dipol)            ewald-force                    non-local-force                 convergence-correction
 -----------------------------------------------------------------------------------------------
   -.146E+01 -.855E+00 0.279E+01   0.133E+01 0.778E+00 -.278E+01   0.846E-01 0.491E-01 -.191E-03   -.112E-03 0.105E-02 0.712E-03
   0.149E+01 -.883E+00 0.279E+01   -.136E+01 0.804E+00 -.278E+01   -.856E-01 0.473E-01 -.225E-03   0.226E-02 0.278E-03 0.147E-04
   0.367E+01 0.637E+01 0.381E+01   -.372E+01 -.644E+01 -.377E+01   -.116E+00 0.865E-01 -.716E-01   -.384E-03 0.223E-02 0.192E-03
   -.232E-01 0.129E+02 0.480E+01   0.216E-01 -.131E+02 -.494E+01   -.192E-02 0.333E-02 0.112E+00   -.137E-02 0.424E-02 0.498E-04
   -.368E+01 0.645E+01 0.381E+01   0.373E+01 -.651E+01 -.377E+01   0.114E+00 0.780E-01 -.714E-01   -.135E-02 0.344E-02 0.464E-03
   -.476E-02 0.169E+01 0.279E+01   0.423E-02 -.154E+01 -.278E+01   -.502E-03 -.988E-01 -.245E-03   0.855E-03 -.601E-03 0.395E-03
   0.117E+02 0.671E+01 0.489E+01   -.113E+02 -.653E+01 -.494E+01   0.108E+00 0.631E-01 0.525E-01   0.118E-02 -.324E-03 -.589E-04
   0.209E+02 0.362E+02 0.186E+02   -.214E+02 -.371E+02 -.190E+02   0.639E+00 0.654E+00 0.546E+00   0.182E-02 0.280E-02 0.110E-02
   -.209E+02 0.363E+02 0.186E+02   0.214E+02 -.371E+02 -.190E+02   -.637E+00 0.654E+00 0.545E+00   -.384E-02 0.391E-02 0.244E-03
   -.117E+02 0.675E+01 0.489E+01   0.113E+02 -.656E+01 -.494E+01   -.109E+00 0.625E-01 0.522E-01   -.208E-02 0.103E-02 -.274E-04
   0.743E+01 -.715E-01 0.381E+01   -.751E+01 0.650E-01 -.377E+01   0.140E-01 -.142E+00 -.716E-01   0.269E-02 -.915E-03 0.369E-03
   0.419E+02 -.557E-01 0.186E+02   -.429E+02 0.131E-01 -.190E+02   0.888E+00 0.224E+00 0.546E+00   0.408E-02 0.161E-02 -.236E-03
   0.115E-01 0.913E-02 0.291E+03   -.234E-01 -.134E-01 -.346E+03   0.987E-03 0.432E-03 0.713E+01   -.127E-02 -.110E-02 0.733E-02
   -.418E+02 0.194E-01 0.186E+02   0.428E+02 -.655E-01 -.190E+02   -.883E+00 0.232E+00 0.545E+00   -.414E-02 0.453E-04 -.466E-03
   -.751E+01 -.106E-01 0.381E+01   0.758E+01 0.421E-03 -.377E+01   -.207E-01 -.137E+00 -.723E-01   -.288E-02 0.426E-03 0.530E-03
   0.112E+02 -.647E+01 0.480E+01   -.114E+02 0.657E+01 -.494E+01   0.807E-02 -.462E-02 0.112E+00   0.402E-02 -.246E-02 -.362E-03
   0.210E+02 -.362E+02 0.186E+02   -.215E+02 0.371E+02 -.190E+02   0.247E+00 -.879E+00 0.545E+00   0.158E-02 -.428E-02 0.132E-03
   -.209E+02 -.362E+02 0.186E+02   0.213E+02 0.371E+02 -.190E+02   -.250E+00 -.884E+00 0.545E+00   -.131E-02 -.549E-03 0.186E-03
   -.103E+02 -.547E+01 0.480E+01   0.103E+02 0.549E+01 -.494E+01   -.634E-01 0.134E-01 0.111E+00   -.355E-02 0.253E-03 -.684E-04
   0.838E+00 -.243E+01 0.282E+01   -.101E+01 0.259E+01 -.278E+01   -.473E-01 -.108E+00 -.151E-01   0.671E-03 -.345E-02 0.616E-03
   0.375E+01 -.640E+01 0.381E+01   -.379E+01 0.647E+01 -.377E+01   0.124E+00 0.601E-01 -.712E-01   0.189E-02 -.299E-02 0.505E-03
   0.417E-01 -.135E+02 0.489E+01   -.418E-01 0.131E+02 -.494E+01   0.581E-03 -.125E+00 0.523E-01   0.108E-02 -.306E-02 0.134E-03
   -.358E+01 -.655E+01 0.381E+01   0.361E+01 0.662E+01 -.377E+01   -.124E+00 0.532E-01 -.724E-01   -.159E-02 -.171E-02 0.615E-04
   -.210E+01 0.748E+00 0.282E+01   0.214E+01 -.786E+00 -.278E+01   -.160E+00 0.417E-01 -.151E-01   -.347E-02 0.197E-02 0.463E-03
   0.142E+01 0.875E+00 0.282E+01   -.148E+01 -.908E+00 -.278E+01   0.754E-01 0.490E-01 -.150E-01   0.148E-02 0.164E-02 0.688E-03
   0.611E-02 -.973E-02 0.250E+01   -.819E-02 0.118E-01 -.250E+01   -.735E-03 0.145E-03 -.102E-01   0.139E-02 0.137E-03 0.327E-03
   0.531E+01 0.404E+01 0.341E+01   -.514E+01 -.427E+01 -.338E+01   -.735E-01 0.553E-02 -.238E-01   0.840E-03 0.130E-02 -.908E-04
   0.605E+01 0.171E+02 0.688E+01   -.579E+01 -.171E+02 -.650E+01   -.632E-01 0.161E+00 -.122E+00   0.767E-03 0.166E-02 0.395E-03
   -.607E+01 0.172E+02 0.688E+01   0.581E+01 -.171E+02 -.650E+01   0.640E-01 0.158E+00 -.121E+00   -.134E-02 0.415E-02 0.297E-03
   -.530E+01 0.408E+01 0.341E+01   0.513E+01 -.431E+01 -.338E+01   0.706E-01 0.389E-02 -.239E-01   -.105E-02 0.237E-02 0.468E-03
   0.618E+01 0.254E+01 0.341E+01   -.629E+01 -.228E+01 -.338E+01   -.328E-01 -.651E-01 -.238E-01   0.378E-02 -.349E-03 0.262E-03
   0.283E+02 0.163E+02 0.126E+02   -.286E+02 -.165E+02 -.131E+02   -.158E+00 -.915E-01 0.145E+00   0.202E-02 -.582E-04 0.253E-03
   0.642E-02 0.878E+02 0.586E+02   -.822E-02 -.922E+02 -.663E+02   0.123E-02 -.642E+00 0.330E+01   0.255E-02 0.503E-02 0.139E-02
   -.283E+02 0.164E+02 0.126E+02   0.286E+02 -.165E+02 -.131E+02   0.158E+00 -.874E-01 0.145E+00   -.351E-02 0.186E-02 -.697E-05
   -.620E+01 0.256E+01 0.341E+01   0.631E+01 -.230E+01 -.338E+01   0.313E-01 -.635E-01 -.239E-01   -.258E-02 0.219E-03 0.481E-03
   0.179E+02 -.335E+01 0.688E+01   -.177E+02 0.353E+01 -.650E+01   0.106E+00 -.136E+00 -.120E+00   0.309E-02 -.150E-02 -.175E-03
   0.760E+02 -.439E+02 0.586E+02   -.799E+02 0.461E+02 -.663E+02   -.556E+00 0.322E+00 0.330E+01   0.508E-02 -.115E-02 0.276E-02
   -.760E+02 -.438E+02 0.586E+02   0.798E+02 0.461E+02 -.663E+02   0.545E+00 0.313E+00 0.332E+01   -.322E-02 -.457E-02 0.478E-03
   -.179E+02 -.315E+01 0.688E+01   0.177E+02 0.329E+01 -.650E+01   -.109E+00 -.131E+00 -.124E+00   -.267E-02 -.568E-03 -.878E-05
   -.243E-01 -.765E+00 0.293E+01   0.309E-01 0.105E+01 -.290E+01   0.170E-04 -.159E+00 -.526E-01   0.190E-03 -.274E-02 0.349E-03
   0.119E+02 -.138E+02 0.688E+01   -.119E+02 0.136E+02 -.650E+01   0.170E+00 -.228E-01 -.121E+00   0.426E-02 -.282E-02 0.344E-03
   0.510E-01 -.327E+02 0.126E+02   -.516E-01 0.330E+02 -.131E+02   0.530E-03 0.182E+00 0.145E+00   -.325E-03 -.286E-02 -.999E-04
   -.115E+02 -.138E+02 0.688E+01   0.115E+02 0.136E+02 -.650E+01   -.199E+00 -.224E-01 -.124E+00   -.122E-02 -.133E-02 0.155E-03
   -.616E+01 -.226E+01 0.283E+01   0.645E+01 0.223E+01 -.287E+01   0.267E+00 -.105E-01 0.140E-01   -.748E-02 -.115E-02 0.586E-03
   0.413E+01 -.222E+01 0.282E+01   -.410E+01 0.218E+01 -.286E+01   -.602E-02 -.144E-01 0.129E-01   0.358E-02 -.214E-02 0.292E-03
   0.899E+00 -.663E+01 0.341E+01   -.118E+01 0.660E+01 -.338E+01   0.382E-01 0.597E-01 -.239E-01   0.171E-02 -.339E-02 0.472E-03
   -.832E+00 -.667E+01 0.341E+01   0.110E+01 0.664E+01 -.338E+01   -.388E-01 0.597E-01 -.239E-01   0.319E-03 -.219E-02 0.841E-04
   -.529E+00 0.108E+00 0.293E+01   0.764E+00 -.221E+00 -.290E+01   -.154E+00 0.101E+00 -.520E-01   -.216E-02 0.669E-03 0.156E-03
   -.152E-02 0.463E+01 0.282E+01   0.309E-01 -.457E+01 -.286E+01   -.200E-01 -.157E-02 0.130E-01   -.147E-02 0.426E-02 0.381E-03
   0.566E+00 0.339E+00 0.293E+01   -.777E+00 -.460E+00 -.290E+01   0.133E+00 0.775E-01 -.522E-01   0.161E-02 0.398E-03 0.540E-03
   0.132E-01 0.146E-01 -.722E+03   -.323E-01 -.184E-01 0.846E+03   0.459E-01 0.139E-01 -.638E+02   -.557E-02 -.742E-03 -.169E-01
 -----------------------------------------------------------------------------------------------
   -.192E-01 -.145E-02 0.440E+02   0.467E-13 -.452E-13 -.455E-12   0.242E-01 0.369E-02 -.440E+02   -.517E-02 -.204E-02 0.617E-02
 
 
 POSITION                                       TOTAL-FORCE (eV/Angst)
 -----------------------------------------------------------------------------------
      0.00000      0.00000      8.35995        -0.047355     -0.027416      0.009340
      2.46000      0.00000      8.35995         0.048064     -0.030752      0.009478
      4.92000      0.00000      8.35995        -0.165539      0.016214     -0.026069
      7.38000      0.00000      8.35995        -0.004822     -0.210113     -0.027000
      9.84000      0.00000      8.35995         0.158470      0.015971     -0.025883
      1.23000      2.13042      8.35995        -0.000170      0.052211      0.009368
      3.69000      2.13042      8.35995         0.428729      0.247680     -0.000014
      6.15000      2.13042      8.35995         0.096307     -0.207169      0.164845
      8.61000      2.13042      8.35995        -0.097089     -0.203246      0.164643
     11.07000      2.13042      8.35995        -0.428165      0.248446      0.000014
      2.46000      4.26084      8.35995        -0.058623     -0.149758     -0.025639
      4.92000      4.26084      8.35995        -0.124373      0.183236      0.164069
      7.38000      4.26084      8.35995        -0.012159     -0.004959    -48.162373
      9.84000      4.26084      8.35995         0.141009      0.185466      0.167081
     12.30000      4.26084      8.35995         0.049962     -0.146684     -0.026650
      3.69000      6.39127      8.35995        -0.177608      0.095316     -0.026892
      6.15000      6.39127      8.35995        -0.225645      0.018761      0.164710
      8.61000      6.39127      8.35995         0.226670      0.030167      0.166763
     11.07000      6.39127      8.35995        -0.048691      0.031922     -0.027093
     13.53000      6.39127      8.35995        -0.215599      0.049440      0.017779
      4.92000      8.52169      8.35995         0.094615      0.130617     -0.026125
      7.38000      8.52169      8.35995         0.001503     -0.495842     -0.000059
      9.84000      8.52169      8.35995        -0.090040      0.120402     -0.026401
     12.30000      8.52169      8.35995        -0.115688      0.005313      0.017846
     14.76000      8.52169      8.35995         0.013539      0.018205      0.017801
      1.23000      0.71014      8.36012        -0.001424      0.002342     -0.006100
      3.69000      0.71014      8.36012         0.099058     -0.216508      0.010163
      6.15000      0.71014      8.36012         0.193018      0.252439      0.257122
      8.61000      0.71014      8.36012        -0.192656      0.247495      0.257119
     11.07000      0.71014      8.36012        -0.097069     -0.217388      0.010079
      2.46000      2.84056      8.36012        -0.138621      0.195287      0.010132
      4.92000      2.84056      8.36012        -0.442176     -0.252912     -0.355257
      7.38000      2.84056      8.36012         0.001982     -5.079135     -4.351873
      9.84000      2.84056      8.36012         0.442825     -0.255110     -0.354923
     12.30000      2.84056      8.36012         0.137745      0.193857      0.010205
      3.69000      4.97099      8.36012         0.307758      0.045614      0.257258
      6.15000      4.97099      8.36012        -4.401047      2.539800     -4.353555
      8.61000      4.97099      8.36012         4.386301      2.534840     -4.339033
     11.07000      4.97099      8.36012        -0.307917      0.007614      0.256558
     13.53000      4.97099      8.36012         0.006797      0.118813     -0.022146
      4.92000      7.10141      8.36012         0.118241     -0.292740      0.256911
      7.38000      7.10141      8.36012        -0.000386      0.510729     -0.354876
      9.84000      7.10141      8.36012        -0.168969     -0.291969      0.257046
     12.29000      7.10141      8.36012         0.548185     -0.038328     -0.026314
     14.76000      7.10141      8.36012         0.034183     -0.050231     -0.026425
      6.15000      9.23183      8.36012        -0.238404      0.024473      0.010042
      8.61000      9.23183      8.36012         0.233251      0.027535      0.010264
     11.07000      9.23183      8.36012         0.078618     -0.011473     -0.022292
     13.53000      9.23183      8.36012         0.007861      0.064993     -0.026415
     15.99000      9.23183      8.36012        -0.075735     -0.042803     -0.022092
      7.38000      4.26084      9.36012         0.021279      0.009341     59.984865
 -----------------------------------------------------------------------------------
    total drift:                               -0.000202      0.000197     -0.000690


--------------------------------------------------------------------------------------------------------



  FREE ENERGIE OF THE ION-ELECTRON SYSTEM (eV)
  ---------------------------------------------------
  free  energy   TOTEN  =      -454.33822022 eV

  energy  without entropy=     -454.33810332  energy(sigma->0) =     -454.33816177
 


--------------------------------------------------------------------------------------------------------


    POTLOK:  cpu time    0.1827: real time    0.1828


--------------------------------------------------------------------------------------------------------


 stress matrix after NEB project (eV)
     15.56648      0.10501      0.02111
      0.10501     15.54285      0.00931
      0.02111      0.00931     52.16817
  FORCES: max atom, RMS    59.984870   10.897178
  FORCE total and by dimension   77.821413   59.984865
  Stress total and by dimension   56.616572   52.168167
     LOOP+:  cpu time   42.5129: real time   42.5735
    4ORBIT:  cpu time    0.0000: real time    0.0000

 total amount of memory used by VASP MPI-rank0    90113. kBytes
=======================================================================

   base      :      30000. kBytes
   nonl-proj :       8674. kBytes
   fftplans  :      26248. kBytes
   grid      :      14579. kBytes
   one-center:         21. kBytes
   wavefun   :      10591. kBytes
 
  
  
 General timing and accounting informations for this job:
 ========================================================
  
                  Total CPU time used (sec):       50.187
                            User time (sec):       46.825
                          System time (sec):        3.362
                         Elapsed time (sec):       50.304
  
                   Maximum memory used (kb):      363888.
                   Average memory used (kb):           0.
  
                          Minor page faults:       104200
                          Major page faults:            0
                 Voluntary context switches:         1257
