<?xml version="1.0" encoding="ISO-8859-1"?>
<modeling>
 <generator>
  <i name="program" type="string">vasp </i>
  <i name="version" type="string">5.4.4.18Apr17-6-g9f103f2a35  </i>
  <i name="subversion" type="string">(build Aug 13 2022 23:40:43) complex            parallel </i>
  <i name="platform" type="string">LinuxIFC </i>
  <i name="date" type="string">2024 11 10 </i>
  <i name="time" type="string">04:26:13 </i>
 </generator>
 <incar>
  <i type="int" name="ISTART">     1</i>
  <i type="string" name="PREC">accurate</i>
  <i type="string" name="ALGO"> F          N:DAV,fine,slow</i>
  <i type="logical" name="ADDGRID"> T  </i>
  <i type="int" name="ISPIN">     1</i>
  <i type="int" name="ICHARG">     1</i>
  <i type="int" name="NELM">   300</i>
  <i type="int" name="IBRION">    -1</i>
  <i name="EDIFF">      0.00001000</i>
  <i name="EDIFFG">     -0.00100000</i>
  <i type="int" name="NSW">     1</i>
  <i type="int" name="ISIF">     2</i>
  <i name="ENCUT">    400.00000000</i>
  <i type="logical" name="LREAL"> F  </i>
  <i type="int" name="ISMEAR">     0</i>
  <i name="SIGMA">      0.05000000</i>
  <i type="logical" name="LWAVE"> F  </i>
  <i type="logical" name="LCHARG"> F  </i>
  <v type="int" name="KPOINT_BSE">    -1     0     0     0</v>
  <i type="int" name="NELM">   300</i>
 </incar>
 <structure name="primitive_cell" >
  <crystal>
   <varray name="basis" >
    <v>      12.30000019       0.00000000       0.00000000 </v>
    <v>       6.15000080      10.65211222       0.00000000 </v>
    <v>       0.00000000       0.00000000      20.00000000 </v>
   </varray>
   <i name="volume">   2620.41964732 </i>
   <varray name="rec_basis" >
    <v>       0.08130081      -0.04693905       0.00000000 </v>
    <v>       0.00000000       0.09387809       0.00000000 </v>
    <v>       0.00000000       0.00000000       0.05000000 </v>
   </varray>
  </crystal>
  <varray name="positions" >
   <v>       0.00000000       0.00000000       0.41799748 </v>
   <v>       0.06666667       0.06666660       0.41800609 </v>
   <v>      -0.13333333       0.06666660       0.41800609 </v>
   <v>       0.06666667      -0.13333340       0.41800609 </v>
   <v>      -0.20000000       0.20000000       0.41799748 </v>
   <v>       0.20000000      -0.20000000       0.41799748 </v>
   <v>       0.20000000       0.00000000       0.41799748 </v>
   <v>      -0.20000000       0.00000000       0.41799748 </v>
   <v>       0.00000000       0.20000000       0.41799748 </v>
   <v>       0.00000000      -0.20000000       0.41799748 </v>
   <v>      -0.13333333       0.26666660       0.41800609 </v>
   <v>       0.26666667      -0.13333340       0.41800609 </v>
   <v>      -0.13333333      -0.13333340       0.41800609 </v>
   <v>       0.06666667       0.26666660       0.41800609 </v>
   <v>      -0.33333333       0.26666660       0.41800609 </v>
   <v>       0.26666667       0.06666660       0.41800609 </v>
   <v>      -0.33333333       0.06666660       0.41800609 </v>
   <v>       0.26666667      -0.33333340       0.41800609 </v>
   <v>       0.06666667      -0.33333340       0.41800609 </v>
   <v>      -0.40000000       0.20000000       0.41799748 </v>
   <v>       0.40000000      -0.20000000       0.41799748 </v>
   <v>      -0.20000000       0.40000000       0.41799748 </v>
   <v>       0.20000000      -0.40000000       0.41799748 </v>
   <v>       0.20000000       0.20000000       0.41799748 </v>
   <v>      -0.20000000      -0.20000000       0.41799748 </v>
   <v>      -0.40000000       0.40000000       0.41799748 </v>
   <v>       0.40000000      -0.40000000       0.41799748 </v>
   <v>       0.40000000       0.00000000       0.41799748 </v>
   <v>      -0.40000000       0.00000000       0.41799748 </v>
   <v>       0.00000000       0.40000000       0.41799748 </v>
   <v>       0.00000000      -0.40000000       0.41799748 </v>
   <v>      -0.13333333       0.46666660       0.41800609 </v>
   <v>      -0.33333333       0.46666660       0.41800609 </v>
   <v>       0.46666667      -0.13333340       0.41800609 </v>
   <v>       0.46666667      -0.33333340       0.41800609 </v>
   <v>      -0.33333333      -0.13333340       0.41800609 </v>
   <v>      -0.13333333      -0.33333340       0.41800609 </v>
   <v>       0.26666667       0.26666660       0.41800609 </v>
   <v>       0.46666667       0.26666660       0.41800609 </v>
   <v>       0.26666667       0.46666660       0.41800609 </v>
   <v>       0.06666667       0.46666660       0.41800609 </v>
   <v>       0.46666667       0.46666660       0.41800609 </v>
   <v>       0.46666667       0.06666660       0.41800609 </v>
   <v>       0.40000000       0.40000000       0.41799748 </v>
   <v>      -0.40000000      -0.40000000       0.41799748 </v>
   <v>       0.40000000       0.20000000       0.41799748 </v>
   <v>      -0.40000000      -0.20000000       0.41799748 </v>
   <v>       0.20000000       0.40000000       0.41799748 </v>
   <v>      -0.20000000      -0.40000000       0.41799748 </v>
   <v>       0.40000000       0.40000000       0.46800609 </v>
   <v>      -0.33414634      -0.33333340       0.41800609 </v>
  </varray>
 </structure>
 <varray name="primitive_index" >
  <v type="int" >        1 </v>
  <v type="int" >       26 </v>
  <v type="int" >       30 </v>
  <v type="int" >       46 </v>
  <v type="int" >       10 </v>
  <v type="int" >       22 </v>
  <v type="int" >        2 </v>
  <v type="int" >        5 </v>
  <v type="int" >        6 </v>
  <v type="int" >       21 </v>
  <v type="int" >       35 </v>
  <v type="int" >       47 </v>
  <v type="int" >       50 </v>
  <v type="int" >       31 </v>
  <v type="int" >       34 </v>
  <v type="int" >       27 </v>
  <v type="int" >       29 </v>
  <v type="int" >       42 </v>
  <v type="int" >       41 </v>
  <v type="int" >        9 </v>
  <v type="int" >       23 </v>
  <v type="int" >       15 </v>
  <v type="int" >       17 </v>
  <v type="int" >        7 </v>
  <v type="int" >       25 </v>
  <v type="int" >       14 </v>
  <v type="int" >       18 </v>
  <v type="int" >        3 </v>
  <v type="int" >        4 </v>
  <v type="int" >       11 </v>
  <v type="int" >       16 </v>
  <v type="int" >       40 </v>
  <v type="int" >       39 </v>
  <v type="int" >       48 </v>
  <v type="int" >       43 </v>
  <v type="int" >       49 </v>
  <v type="int" >       45 </v>
  <v type="int" >       32 </v>
  <v type="int" >       33 </v>
  <v type="int" >       37 </v>
  <v type="int" >       36 </v>
  <v type="int" >       38 </v>
  <v type="int" >       28 </v>
  <v type="int" >       13 </v>
  <v type="int" >       19 </v>
  <v type="int" >        8 </v>
  <v type="int" >       24 </v>
  <v type="int" >       12 </v>
  <v type="int" >       20 </v>
  <v type="int" >       51 </v>
  <v type="int" >       44 </v>
 </varray>
 <kpoints>
  <generation param="Gamma">
   <v type="int" name="divisions">       3        3        1 </v>
   <v name="usershift">      0.00000000       0.00000000       0.00000000 </v>
   <v name="genvec1">      0.33333333      -0.00000000       0.00000000 </v>
   <v name="genvec2">      0.00000000       0.33333333       0.00000000 </v>
   <v name="genvec3">      0.00000000       0.00000000       1.00000000 </v>
   <v name="shift">      0.00000000       0.00000000       0.00000000 </v>
  </generation>
  <varray name="kpointlist" >
   <v>       0.00000000       0.00000000       0.00000000 </v>
   <v>       0.33333333       0.00000000       0.00000000 </v>
   <v>       0.00000000       0.33333333       0.00000000 </v>
   <v>       0.33333333       0.33333333       0.00000000 </v>
   <v>      -0.33333333       0.33333333       0.00000000 </v>
  </varray>
  <varray name="weights" >
   <v>       0.11111111 </v>
   <v>       0.22222222 </v>
   <v>       0.22222222 </v>
   <v>       0.22222222 </v>
   <v>       0.22222222 </v>
  </varray>
 </kpoints>
 <parameters>
  <separator name="general" >
   <i type="string" name="SYSTEM"></i>
   <i type="logical" name="LCOMPAT"> F  </i>
  </separator>
  <separator name="electronic" >
   <i type="string" name="PREC">accura</i>
   <i name="ENMAX">    400.00000000</i>
   <i name="ENAUG">    644.87300000</i>
   <i name="EDIFF">      0.00001000</i>
   <i type="int" name="IALGO">    68</i>
   <i type="int" name="IWAVPR">    10</i>
   <i type="int" name="NBANDS">   132</i>
   <i name="NELECT">    206.00000000</i>
   <i type="int" name="TURBO">     0</i>
   <i type="int" name="IRESTART">     0</i>
   <i type="int" name="NREBOOT">     0</i>
   <i type="int" name="NMIN">     0</i>
   <i name="EREF">      0.00000000</i>
   <separator name="electronic smearing" >
    <i type="int" name="ISMEAR">     0</i>
    <i name="SIGMA">      0.05000000</i>
    <i name="KSPACING">      0.50000000</i>
    <i type="logical" name="KGAMMA"> T  </i>
   </separator>
   <separator name="electronic projectors" >
    <i type="logical" name="LREAL"> F  </i>
    <v name="ROPT">      0.00000000      0.00000000</v>
    <i type="int" name="LMAXPAW">  -100</i>
    <i type="int" name="LMAXMIX">     2</i>
    <i type="logical" name="NLSPLINE"> F  </i>
   </separator>
   <separator name="electronic startup" >
    <i type="int" name="ISTART">     1</i>
    <i type="int" name="ICHARG">     1</i>
    <i type="int" name="INIWAV">     1</i>
   </separator>
   <separator name="electronic spin" >
    <i type="int" name="ISPIN">     1</i>
    <i type="logical" name="LNONCOLLINEAR"> F  </i>
    <v name="MAGMOM">      1.00000000      1.00000000      1.00000000      1.00000000      1.00000000      1.00000000      1.00000000      1.00000000      1.00000000      1.00000000      1.00000000      1.00000000      1.00000000      1.00000000      1.00000000      1.00000000      1.00000000      1.00000000      1.00000000      1.00000000
      1.00000000      1.00000000      1.00000000      1.00000000      1.00000000      1.00000000      1.00000000      1.00000000      1.00000000      1.00000000      1.00000000      1.00000000      1.00000000      1.00000000      1.00000000      1.00000000      1.00000000      1.00000000      1.00000000      1.00000000
      1.00000000      1.00000000      1.00000000      1.00000000      1.00000000      1.00000000      1.00000000      1.00000000      1.00000000      1.00000000      1.00000000</v>
    <i name="NUPDOWN">     -1.00000000</i>
    <i type="logical" name="LSORBIT"> F  </i>
    <v name="SAXIS">      0.00000000      0.00000000      1.00000000</v>
    <i type="logical" name="LSPIRAL"> F  </i>
    <v name="QSPIRAL">      0.00000000      0.00000000      0.00000000</v>
    <i type="logical" name="LZEROZ"> F  </i>
   </separator>
   <separator name="electronic exchange-correlation" >
    <i type="logical" name="LASPH"> F  </i>
    <i type="logical" name="LMETAGGA"> F  </i>
   </separator>
   <separator name="electronic convergence" >
    <i type="int" name="NELM">   300</i>
    <i type="int" name="NELMDL">     0</i>
    <i type="int" name="NELMIN">     2</i>
    <i name="ENINI">    400.00000000</i>
    <separator name="electronic convergence detail" >
     <i type="logical" name="LDIAG"> T  </i>
     <i type="logical" name="LSUBROT"> F  </i>
     <i name="WEIMIN">      0.00000000</i>
     <i name="EBREAK">      0.00000002</i>
     <i name="DEPER">      0.30000000</i>
     <i type="int" name="NRMM">     4</i>
     <i name="TIME">      0.40000000</i>
    </separator>
   </separator>
   <separator name="electronic mixer" >
    <i name="AMIX">      0.40000000</i>
    <i name="BMIX">      1.00000000</i>
    <i name="AMIN">      0.10000000</i>
    <i name="AMIX_MAG">      1.60000000</i>
    <i name="BMIX_MAG">      1.00000000</i>
    <separator name="electronic mixer details" >
     <i type="int" name="IMIX">     4</i>
     <i type="logical" name="MIXFIRST"> F  </i>
     <i type="int" name="MAXMIX">   -45</i>
     <i name="WC">    100.00000000</i>
     <i type="int" name="INIMIX">     1</i>
     <i type="int" name="MIXPRE">     1</i>
     <i type="int" name="MREMOVE">     5</i>
    </separator>
   </separator>
   <separator name="electronic dipolcorrection" >
    <i type="logical" name="LDIPOL"> F  </i>
    <i type="logical" name="LMONO"> F  </i>
    <i type="int" name="IDIPOL">     0</i>
    <i name="EPSILON">      1.00000000</i>
    <v name="DIPOL">   -100.00000000   -100.00000000   -100.00000000</v>
    <i name="EFIELD">      0.00000000</i>
   </separator>
  </separator>
  <separator name="grids" >
   <i type="int" name="NGX">    80</i>
   <i type="int" name="NGY">    80</i>
   <i type="int" name="NGZ">   140</i>
   <i type="int" name="NGXF">   160</i>
   <i type="int" name="NGYF">   160</i>
   <i type="int" name="NGZF">   280</i>
   <i type="logical" name="ADDGRID"> T  </i>
  </separator>
  <separator name="ionic" >
   <i type="int" name="NSW">     1</i>
   <i type="int" name="IBRION">    -1</i>
   <i type="int" name="MDALGO">     0</i>
   <i type="int" name="ISIF">     2</i>
   <i name="PSTRESS">      0.00000000</i>
   <i name="EDIFFG">     -0.00100000</i>
   <i type="int" name="NFREE">     0</i>
   <i name="POTIM">      0.50000000</i>
   <i name="SMASS">     -3.00000000</i>
   <i name="SCALEE">      1.00000000</i>
  </separator>
  <separator name="ionic md" >
   <i name="TEBEG">      0.00010000</i>
   <i name="TEEND">      0.00010000</i>
   <i type="int" name="NBLOCK">     1</i>
   <i type="int" name="KBLOCK">     1</i>
   <i type="int" name="NPACO">   256</i>
   <i name="APACO">     16.00000000</i>
  </separator>
  <separator name="symmetry" >
   <i type="int" name="ISYM">     2</i>
   <i name="SYMPREC">      0.00001000</i>
  </separator>
  <separator name="dos" >
   <i type="int" name="LORBIT">     0</i>
   <v name="RWIGS">     -1.00000000     -1.00000000</v>
   <i type="int" name="NEDOS">   301</i>
   <i name="EMIN">     10.00000000</i>
   <i name="EMAX">    -10.00000000</i>
   <i name="EFERMI">      0.00000000</i>
  </separator>
  <separator name="writing" >
   <i type="int" name="NWRITE">     2</i>
   <i type="logical" name="LWAVE"> F  </i>
   <i type="logical" name="LDOWNSAMPLE"> F  </i>
   <i type="logical" name="LCHARG"> F  </i>
   <i type="logical" name="LPARD"> F  </i>
   <i type="logical" name="LVTOT"> F  </i>
   <i type="logical" name="LVHAR"> F  </i>
   <i type="logical" name="LELF"> F  </i>
   <i type="logical" name="LOPTICS"> F  </i>
   <v name="STM">      0.00000000      0.00000000      0.00000000      0.00000000      0.00000000      0.00000000      0.00000000</v>
  </separator>
  <separator name="performance" >
   <i type="int" name="NPAR">     6</i>
   <i type="int" name="NSIM">     4</i>
   <i type="int" name="NBLK">    -1</i>
   <i type="logical" name="LPLANE"> T  </i>
   <i type="logical" name="LSCALAPACK"> T  </i>
   <i type="logical" name="LSCAAWARE"> F  </i>
   <i type="logical" name="LSCALU"> F  </i>
   <i type="logical" name="LASYNC"> F  </i>
   <i type="logical" name="LORBITALREAL"> F  </i>
  </separator>
  <separator name="miscellaneous" >
   <i type="int" name="IDIOT">     3</i>
   <i type="int" name="ISPECIAL">     0</i>
   <i type="logical" name="LMUSIC"> F  </i>
   <v name="POMASS">     12.01100000     16.00000000</v>
   <v name="DARWINR">      0.00000000      0.00000000</v>
   <v name="DARWINV">      1.00000000      1.00000000</v>
   <i type="logical" name="LCORR"> T  </i>
  </separator>
  <i type="logical" name="GGA_COMPAT"> T  </i>
  <i type="logical" name="LBERRY"> F  </i>
  <i type="int" name="ICORELEVEL">     0</i>
  <i type="logical" name="LDAU"> F  </i>
  <i type="int" name="I_CONSTRAINED_M">     0</i>
  <separator name="electronic exchange-correlation" >
   <i type="string" name="GGA">--</i>
   <i type="int" name="VOSKOWN">     0</i>
   <i type="logical" name="LHFCALC"> F  </i>
   <i type="string" name="PRECFOCK"></i>
   <i type="logical" name="LSYMGRAD"> F  </i>
   <i type="logical" name="LHFONE"> F  </i>
   <i type="logical" name="LRHFCALC"> F  </i>
   <i type="logical" name="LTHOMAS"> F  </i>
   <i type="logical" name="LMODELHF"> F  </i>
   <i name="ENCUT4O">     -1.00000000</i>
   <i type="int" name="EXXOEP">     0</i>
   <i type="int" name="FOURORBIT">     0</i>
   <i name="AEXX">      0.00000000</i>
   <i name="HFALPHA">      0.00000000</i>
   <i name="MCALPHA">      0.00000000</i>
   <i name="ALDAX">      1.00000000</i>
   <i name="AGGAX">      1.00000000</i>
   <i name="ALDAC">      1.00000000</i>
   <i name="AGGAC">      1.00000000</i>
   <i type="int" name="NKREDX">     1</i>
   <i type="int" name="NKREDY">     1</i>
   <i type="int" name="NKREDZ">     1</i>
   <i type="logical" name="SHIFTRED"> F  </i>
   <i type="logical" name="ODDONLY"> F  </i>
   <i type="logical" name="EVENONLY"> F  </i>
   <i type="int" name="LMAXFOCK">     0</i>
   <i type="int" name="NMAXFOCKAE">     0</i>
   <i type="logical" name="LFOCKAEDFT"> F  </i>
   <i name="HFSCREEN">      0.00000000</i>
   <i name="HFSCREENC">      0.00000000</i>
   <i type="int" name="NBANDSGWLOW">     0</i>
  </separator>
  <separator name="vdW DFT" >
   <i type="logical" name="LUSE_VDW"> F  </i>
   <i name="Zab_VDW">     -0.84910000</i>
   <i name="PARAM1">      0.12340000</i>
   <i name="PARAM2">      1.00000000</i>
   <i name="PARAM3">      0.00000000</i>
  </separator>
  <separator name="model GW" >
   <i type="int" name="MODEL_GW">     0</i>
   <i name="MODEL_EPS0">     30.82846644</i>
   <i name="MODEL_ALPHA">      1.00000000</i>
  </separator>
  <separator name="linear response parameters" >
   <i type="logical" name="LEPSILON"> F  </i>
   <i type="logical" name="LRPA"> F  </i>
   <i type="logical" name="LNABLA"> F  </i>
   <i type="logical" name="LVEL"> F  </i>
   <i type="int" name="KINTER">     0</i>
   <i name="CSHIFT">      0.10000000</i>
   <i name="OMEGAMAX">     -1.00000000</i>
   <i name="DEG_THRESHOLD">      0.00200000</i>
   <i name="RTIME">     -0.10000000</i>
   <i name="WPLASMAI">      0.00000000</i>
   <v name="DFIELD">      0.00000000      0.00000000      0.00000000</v>
   <v name="WPLASMA">      0.00000000      0.00000000      0.00000000      0.00000000      0.00000000      0.00000000      0.00000000      0.00000000      0.00000000</v>
  </separator>
  <separator name="orbital magnetization" >
   <i type="logical" name="NUCIND"> F  </i>
   <v name="MAGPOS">      0.00000000      0.00000000      0.00000000</v>
   <i type="logical" name="LNICSALL"> T  </i>
   <i type="logical" name="ORBITALMAG"> F  </i>
   <i type="logical" name="LMAGBLOCH"> F  </i>
   <i type="logical" name="LCHIMAG"> F  </i>
   <i type="logical" name="LGAUGE"> T  </i>
   <i type="int" name="MAGATOM">     0</i>
   <v name="MAGDIPOL">      0.00000000      0.00000000      0.00000000</v>
   <v name="AVECCONST">      0.00000000      0.00000000      0.00000000</v>
  </separator>
  <separator name="response functions" >
   <i type="logical" name="LADDER"> F  </i>
   <i type="logical" name="LRPAFORCE"> F  </i>
   <i type="logical" name="LFXC"> F  </i>
   <i type="logical" name="LHARTREE"> T  </i>
   <i type="int" name="IBSE">     0</i>
   <v type="int" name="KPOINT">    -1     0     0     0</v>
   <i type="logical" name="LTCTE"> F  </i>
   <i type="logical" name="LTETE"> F  </i>
   <i type="logical" name="LTRIPLET"> F  </i>
   <i type="logical" name="LFXCEPS"> F  </i>
   <i type="logical" name="LFXHEG"> F  </i>
   <i type="int" name="NATURALO">     2</i>
   <i type="logical" name="L2ORDER"> F  </i>
   <i type="logical" name="LMP2LT"> F  </i>
   <i type="logical" name="LUSEW"> F  </i>
   <i name="ENCUTGW">     -2.00000000</i>
   <i name="ENCUTGWSOFT">     -2.00000000</i>
   <i name="ENCUTLF">     -1.00000000</i>
   <i type="int" name="LMAXMP2">    -1</i>
   <i name="SCISSOR">      0.00000000</i>
   <i type="int" name="NOMEGA">     0</i>
   <i type="int" name="NOMEGAR">     0</i>
   <i type="int" name="NBANDSGW">    -1</i>
   <i type="int" name="NBANDSO">    -1</i>
   <i type="int" name="NBANDSV">    -1</i>
   <i type="int" name="NELM">   300</i>
   <i type="int" name="NELMHF">     1</i>
   <i type="int" name="DIM">     3</i>
   <i type="int" name="ANTIRES">     0</i>
   <i name="OMEGAMAX">    -30.00000000</i>
   <i name="OMEGAMIN">    -30.00000000</i>
   <i name="OMEGATL">   -200.00000000</i>
   <i type="int" name="OMEGAGRID">   140</i>
   <i name="CSHIFT">     -0.10000000</i>
   <i type="logical" name="SELFENERGY"> F  </i>
   <i type="logical" name="LSPECTRAL"> F  </i>
   <i type="logical" name="LSPECTRALGW"> F  </i>
   <i type="logical" name="LSINGLES"> F  </i>
   <i type="logical" name="LFERMIGW"> F  </i>
   <i type="logical" name="ODDONLYGW"> F  </i>
   <i type="logical" name="EVENONLYGW"> F  </i>
   <i type="int" name="NKREDLFX">     1</i>
   <i type="int" name="NKREDLFY">     1</i>
   <i type="int" name="NKREDLFZ">     1</i>
   <i type="int" name="MAXMEM">  2800</i>
   <i type="int" name="TELESCOPE">     0</i>
   <i type="int" name="TAUPAR">     1</i>
   <i type="int" name="OMEGAPAR">    -1</i>
   <i name="LAMBDA">      1.00000000</i>
  </separator>
  <separator name="External order field" >
   <i name="OFIELD_KAPPA">      0.00000000</i>
   <v name="OFIELD_K">      0.00000000      0.00000000      0.00000000</v>
   <i name="OFIELD_Q6_NEAR">      0.00000000</i>
   <i name="OFIELD_Q6_FAR">      0.00000000</i>
   <i name="OFIELD_A">      0.00000000</i>
  </separator>
 </parameters>
 <atominfo>
  <atoms>      51 </atoms>
  <types>       2 </types>
  <array name="atoms" >
   <dimension dim="1">ion</dimension>
   <field type="string">element</field>
   <field type="int">atomtype</field>
   <set>
    <rc><c>C </c><c>   1</c></rc>
    <rc><c>C </c><c>   1</c></rc>
    <rc><c>C </c><c>   1</c></rc>
    <rc><c>C </c><c>   1</c></rc>
    <rc><c>C </c><c>   1</c></rc>
    <rc><c>C </c><c>   1</c></rc>
    <rc><c>C </c><c>   1</c></rc>
    <rc><c>C </c><c>   1</c></rc>
    <rc><c>C </c><c>   1</c></rc>
    <rc><c>C </c><c>   1</c></rc>
    <rc><c>C </c><c>   1</c></rc>
    <rc><c>C </c><c>   1</c></rc>
    <rc><c>C </c><c>   1</c></rc>
    <rc><c>C </c><c>   1</c></rc>
    <rc><c>C </c><c>   1</c></rc>
    <rc><c>C </c><c>   1</c></rc>
    <rc><c>C </c><c>   1</c></rc>
    <rc><c>C </c><c>   1</c></rc>
    <rc><c>C </c><c>   1</c></rc>
    <rc><c>C </c><c>   1</c></rc>
    <rc><c>C </c><c>   1</c></rc>
    <rc><c>C </c><c>   1</c></rc>
    <rc><c>C </c><c>   1</c></rc>
    <rc><c>C </c><c>   1</c></rc>
    <rc><c>C </c><c>   1</c></rc>
    <rc><c>C </c><c>   1</c></rc>
    <rc><c>C </c><c>   1</c></rc>
    <rc><c>C </c><c>   1</c></rc>
    <rc><c>C </c><c>   1</c></rc>
    <rc><c>C </c><c>   1</c></rc>
    <rc><c>C </c><c>   1</c></rc>
    <rc><c>C </c><c>   1</c></rc>
    <rc><c>C </c><c>   1</c></rc>
    <rc><c>C </c><c>   1</c></rc>
    <rc><c>C </c><c>   1</c></rc>
    <rc><c>C </c><c>   1</c></rc>
    <rc><c>C </c><c>   1</c></rc>
    <rc><c>C </c><c>   1</c></rc>
    <rc><c>C </c><c>   1</c></rc>
    <rc><c>C </c><c>   1</c></rc>
    <rc><c>C </c><c>   1</c></rc>
    <rc><c>C </c><c>   1</c></rc>
    <rc><c>C </c><c>   1</c></rc>
    <rc><c>C </c><c>   1</c></rc>
    <rc><c>C </c><c>   1</c></rc>
    <rc><c>C </c><c>   1</c></rc>
    <rc><c>C </c><c>   1</c></rc>
    <rc><c>C </c><c>   1</c></rc>
    <rc><c>C </c><c>   1</c></rc>
    <rc><c>C </c><c>   1</c></rc>
    <rc><c>O </c><c>   2</c></rc>
   </set>
  </array>
  <array name="atomtypes" >
   <dimension dim="1">type</dimension>
   <field type="int">atomspertype</field>
   <field type="string">element</field>
   <field>mass</field>
   <field>valence</field>
   <field type="string">pseudopotential</field>
   <set>
    <rc><c>  50</c><c>C </c><c>     12.01100000</c><c>      4.00000000</c><c>  PAW_PBE C 08Apr2002                   </c></rc>
    <rc><c>   1</c><c>O </c><c>     16.00000000</c><c>      6.00000000</c><c>  PAW_PBE O 08Apr2002                   </c></rc>
   </set>
  </array>
 </atominfo>
 <structure name="initialpos" >
  <crystal>
   <varray name="basis" >
    <v>      12.30000019       0.00000000       0.00000000 </v>
    <v>       6.15000080      10.65211222       0.00000000 </v>
    <v>       0.00000000       0.00000000      20.00000000 </v>
   </varray>
   <i name="volume">   2620.41964732 </i>
   <varray name="rec_basis" >
    <v>       0.08130081      -0.04693905       0.00000000 </v>
    <v>       0.00000000       0.09387809       0.00000000 </v>
    <v>       0.00000000       0.00000000       0.05000000 </v>
   </varray>
  </crystal>
  <varray name="positions" >
   <v>       0.00000000       0.00000000       0.41799748 </v>
   <v>       0.20000000       0.00000000       0.41799748 </v>
   <v>       0.40000000       0.00000000       0.41799748 </v>
   <v>       0.60000000       0.00000000       0.41799748 </v>
   <v>       0.80000000       0.00000000       0.41799748 </v>
   <v>       0.00000000       0.20000000       0.41799748 </v>
   <v>       0.20000000       0.20000000       0.41799748 </v>
   <v>       0.40000000       0.20000000       0.41799748 </v>
   <v>       0.60000000       0.20000000       0.41799748 </v>
   <v>       0.80000000       0.20000000       0.41799748 </v>
   <v>       0.00000000       0.40000000       0.41799748 </v>
   <v>       0.20000000       0.40000000       0.41799748 </v>
   <v>       0.40000000       0.40000000       0.41799748 </v>
   <v>       0.60000000       0.40000000       0.41799748 </v>
   <v>       0.80000000       0.40000000       0.41799748 </v>
   <v>       0.00000000       0.60000000       0.41799748 </v>
   <v>       0.20000000       0.60000000       0.41799748 </v>
   <v>       0.40000000       0.60000000       0.41799748 </v>
   <v>       0.60000000       0.60000000       0.41799748 </v>
   <v>       0.80000000       0.60000000       0.41799748 </v>
   <v>       0.00000000       0.80000000       0.41799748 </v>
   <v>       0.20000000       0.80000000       0.41799748 </v>
   <v>       0.40000000       0.80000000       0.41799748 </v>
   <v>       0.60000000       0.80000000       0.41799748 </v>
   <v>       0.80000000       0.80000000       0.41799748 </v>
   <v>       0.06666667       0.06666660       0.41800609 </v>
   <v>       0.26666667       0.06666660       0.41800609 </v>
   <v>       0.46666667       0.06666660       0.41800609 </v>
   <v>       0.66666667       0.06666660       0.41800609 </v>
   <v>       0.86666667       0.06666660       0.41800609 </v>
   <v>       0.06666667       0.26666660       0.41800609 </v>
   <v>       0.26666667       0.26666660       0.41800609 </v>
   <v>       0.46666667       0.26666660       0.41800609 </v>
   <v>       0.66666667       0.26666660       0.41800609 </v>
   <v>       0.86666667       0.26666660       0.41800609 </v>
   <v>       0.06666667       0.46666660       0.41800609 </v>
   <v>       0.26666667       0.46666660       0.41800609 </v>
   <v>       0.46666667       0.46666660       0.41800609 </v>
   <v>       0.66666667       0.46666660       0.41800609 </v>
   <v>       0.86666667       0.46666660       0.41800609 </v>
   <v>       0.06666667       0.66666660       0.41800609 </v>
   <v>       0.26666667       0.66666660       0.41800609 </v>
   <v>       0.46666667       0.66666660       0.41800609 </v>
   <v>       0.66585366       0.66666660       0.41800609 </v>
   <v>       0.86666667       0.66666660       0.41800609 </v>
   <v>       0.06666667       0.86666660       0.41800609 </v>
   <v>       0.26666667       0.86666660       0.41800609 </v>
   <v>       0.46666667       0.86666660       0.41800609 </v>
   <v>       0.66666667       0.86666660       0.41800609 </v>
   <v>       0.86666667       0.86666660       0.41800609 </v>
   <v>       0.40000000       0.40000000       0.46800609 </v>
  </varray>
  <varray name="velocities" >
   <v>       0.00000000       0.00000000       0.00000000 </v>
   <v>       0.00000000       0.00000000       0.00000000 </v>
   <v>       0.00000000       0.00000000       0.00000000 </v>
   <v>       0.00000000       0.00000000       0.00000000 </v>
   <v>       0.00000000       0.00000000       0.00000000 </v>
   <v>       0.00000000       0.00000000       0.00000000 </v>
   <v>       0.00000000       0.00000000       0.00000000 </v>
   <v>       0.00000000       0.00000000       0.00000000 </v>
   <v>       0.00000000       0.00000000       0.00000000 </v>
   <v>       0.00000000       0.00000000       0.00000000 </v>
   <v>       0.00000000       0.00000000       0.00000000 </v>
   <v>       0.00000000       0.00000000       0.00000000 </v>
   <v>       0.00000000       0.00000000       0.00000000 </v>
   <v>       0.00000000       0.00000000       0.00000000 </v>
   <v>       0.00000000       0.00000000       0.00000000 </v>
   <v>       0.00000000       0.00000000       0.00000000 </v>
   <v>       0.00000000       0.00000000       0.00000000 </v>
   <v>       0.00000000       0.00000000       0.00000000 </v>
   <v>       0.00000000       0.00000000       0.00000000 </v>
   <v>       0.00000000       0.00000000       0.00000000 </v>
   <v>       0.00000000       0.00000000       0.00000000 </v>
   <v>       0.00000000       0.00000000       0.00000000 </v>
   <v>       0.00000000       0.00000000       0.00000000 </v>
   <v>       0.00000000       0.00000000       0.00000000 </v>
   <v>       0.00000000       0.00000000       0.00000000 </v>
   <v>       0.00000000       0.00000000       0.00000000 </v>
   <v>       0.00000000       0.00000000       0.00000000 </v>
   <v>       0.00000000       0.00000000       0.00000000 </v>
   <v>       0.00000000       0.00000000       0.00000000 </v>
   <v>       0.00000000       0.00000000       0.00000000 </v>
   <v>       0.00000000       0.00000000       0.00000000 </v>
   <v>       0.00000000       0.00000000       0.00000000 </v>
   <v>       0.00000000       0.00000000       0.00000000 </v>
   <v>       0.00000000       0.00000000       0.00000000 </v>
   <v>       0.00000000       0.00000000       0.00000000 </v>
   <v>       0.00000000       0.00000000       0.00000000 </v>
   <v>       0.00000000       0.00000000       0.00000000 </v>
   <v>       0.00000000       0.00000000       0.00000000 </v>
   <v>       0.00000000       0.00000000       0.00000000 </v>
   <v>       0.00000000       0.00000000       0.00000000 </v>
   <v>       0.00000000       0.00000000       0.00000000 </v>
   <v>       0.00000000       0.00000000       0.00000000 </v>
   <v>       0.00000000       0.00000000       0.00000000 </v>
   <v>       0.00000000       0.00000000       0.00000000 </v>
   <v>       0.00000000       0.00000000       0.00000000 </v>
   <v>       0.00000000       0.00000000       0.00000000 </v>
   <v>       0.00000000       0.00000000       0.00000000 </v>
   <v>       0.00000000       0.00000000       0.00000000 </v>
   <v>       0.00000000       0.00000000       0.00000000 </v>
   <v>       0.00000000       0.00000000       0.00000000 </v>
   <v>       0.00000000       0.00000000       0.00000000 </v>
  </varray>
 </structure>
 <calculation>
  <scstep>
   <time name="dav">    4.10    4.11</time>
   <time name="total">    4.69    4.70</time>
   <energy>
    <i name="alphaZ">     82.54348252 </i>
    <i name="ewald">  34516.58913248 </i>
    <i name="hartreedc"> -41034.89312711 </i>
    <i name="XCdc">    721.38014798 </i>
    <i name="pawpsdc">  22781.19595426 </i>
    <i name="pawaedc"> -22817.52509957 </i>
    <i name="eentropy">     -0.00053788 </i>
    <i name="bandstr">  -2491.20817392 </i>
    <i name="atom">   7788.62438962 </i>
    <i name="e_fr_energy">   -453.29383161 </i>
    <i name="e_wo_entrp">   -453.29329374 </i>
    <i name="e_0_energy">   -453.29356267 </i>
   </energy>
  </scstep>
  <scstep>
   <time name="diag">    0.89    0.89</time>
   <time name="diis">    3.72    3.73</time>
   <time name="orth">    0.04    0.04</time>
   <time name="total">    5.23    5.24</time>
   <energy>
    <i name="e_fr_energy">   -454.28192184 </i>
    <i name="e_wo_entrp">   -454.28182435 </i>
    <i name="e_0_energy">   -454.28187309 </i>
   </energy>
  </scstep>
  <scstep>
   <time name="diag">    0.89    0.90</time>
   <time name="diis">    4.18    4.18</time>
   <time name="orth">    0.04    0.04</time>
   <time name="total">    5.69    5.70</time>
   <energy>
    <i name="e_fr_energy">   -454.33420243 </i>
    <i name="e_wo_entrp">   -454.33407416 </i>
    <i name="e_0_energy">   -454.33413830 </i>
   </energy>
  </scstep>
  <scstep>
   <time name="diag">    0.89    0.89</time>
   <time name="diis">    4.12    4.13</time>
   <time name="orth">    0.04    0.04</time>
   <time name="total">    5.63    5.63</time>
   <energy>
    <i name="e_fr_energy">   -454.33808111 </i>
    <i name="e_wo_entrp">   -454.33797020 </i>
    <i name="e_0_energy">   -454.33802565 </i>
   </energy>
  </scstep>
  <scstep>
   <time name="diag">    0.88    0.88</time>
   <time name="diis">    3.98    3.99</time>
   <time name="orth">    0.04    0.04</time>
   <time name="total">    5.49    5.50</time>
   <energy>
    <i name="e_fr_energy">   -454.33818755 </i>
    <i name="e_wo_entrp">   -454.33807300 </i>
    <i name="e_0_energy">   -454.33813027 </i>
   </energy>
  </scstep>
  <scstep>
   <time name="diag">    0.88    0.88</time>
   <time name="diis">    4.06    4.06</time>
   <time name="orth">    0.04    0.04</time>
   <time name="total">    5.56    5.57</time>
   <energy>
    <i name="e_fr_energy">   -454.33821245 </i>
    <i name="e_wo_entrp">   -454.33809648 </i>
    <i name="e_0_energy">   -454.33815446 </i>
   </energy>
  </scstep>
  <scstep>
   <time name="diag">    0.90    0.90</time>
   <time name="diis">    2.94    2.94</time>
   <time name="orth">    0.04    0.04</time>
   <time name="total">    4.07    4.07</time>
   <energy>
    <i name="alphaZ">     82.54348252 </i>
    <i name="ewald">  34516.58913248 </i>
    <i name="hartreedc"> -41034.96535260 </i>
    <i name="XCdc">    721.38566571 </i>
    <i name="pawpsdc">  22777.00432807 </i>
    <i name="pawaedc"> -22813.33666836 </i>
    <i name="eentropy">     -0.00011691 </i>
    <i name="bandstr">  -2492.18308075 </i>
    <i name="atom">   7788.62438962 </i>
    <i name="e_fr_energy">   -454.33822022 </i>
    <i name="e_wo_entrp">   -454.33810332 </i>
    <i name="e_0_energy">   -454.33816177 </i>
   </energy>
  </scstep>
  <structure>
   <crystal>
    <varray name="basis" >
     <v>      12.30000019       0.00000000       0.00000000 </v>
     <v>       6.15000080      10.65211222       0.00000000 </v>
     <v>       0.00000000       0.00000000      20.00000000 </v>
    </varray>
    <i name="volume">   2620.41964732 </i>
    <varray name="rec_basis" >
     <v>       0.08130081      -0.04693905       0.00000000 </v>
     <v>       0.00000000       0.09387809       0.00000000 </v>
     <v>       0.00000000       0.00000000       0.05000000 </v>
    </varray>
   </crystal>
   <varray name="positions" >
    <v>       0.00000000       0.00000000       0.41799748 </v>
    <v>       0.20000000       0.00000000       0.41799748 </v>
    <v>       0.40000000       0.00000000       0.41799748 </v>
    <v>       0.60000000       0.00000000       0.41799748 </v>
    <v>       0.80000000       0.00000000       0.41799748 </v>
    <v>       0.00000000       0.20000000       0.41799748 </v>
    <v>       0.20000000       0.20000000       0.41799748 </v>
    <v>       0.40000000       0.20000000       0.41799748 </v>
    <v>       0.60000000       0.20000000       0.41799748 </v>
    <v>       0.80000000       0.20000000       0.41799748 </v>
    <v>       0.00000000       0.40000000       0.41799748 </v>
    <v>       0.20000000       0.40000000       0.41799748 </v>
    <v>       0.40000000       0.40000000       0.41799748 </v>
    <v>       0.60000000       0.40000000       0.41799748 </v>
    <v>       0.80000000       0.40000000       0.41799748 </v>
    <v>       0.00000000       0.60000000       0.41799748 </v>
    <v>       0.20000000       0.60000000       0.41799748 </v>
    <v>       0.40000000       0.60000000       0.41799748 </v>
    <v>       0.60000000       0.60000000       0.41799748 </v>
    <v>       0.80000000       0.60000000       0.41799748 </v>
    <v>       0.00000000       0.80000000       0.41799748 </v>
    <v>       0.20000000       0.80000000       0.41799748 </v>
    <v>       0.40000000       0.80000000       0.41799748 </v>
    <v>       0.60000000       0.80000000       0.41799748 </v>
    <v>       0.80000000       0.80000000       0.41799748 </v>
    <v>       0.06666667       0.06666660       0.41800609 </v>
    <v>       0.26666667       0.06666660       0.41800609 </v>
    <v>       0.46666667       0.06666660       0.41800609 </v>
    <v>       0.66666667       0.06666660       0.41800609 </v>
    <v>       0.86666667       0.06666660       0.41800609 </v>
    <v>       0.06666667       0.26666660       0.41800609 </v>
    <v>       0.26666667       0.26666660       0.41800609 </v>
    <v>       0.46666667       0.26666660       0.41800609 </v>
    <v>       0.66666667       0.26666660       0.41800609 </v>
    <v>       0.86666667       0.26666660       0.41800609 </v>
    <v>       0.06666667       0.46666660       0.41800609 </v>
    <v>       0.26666667       0.46666660       0.41800609 </v>
    <v>       0.46666667       0.46666660       0.41800609 </v>
    <v>       0.66666667       0.46666660       0.41800609 </v>
    <v>       0.86666667       0.46666660       0.41800609 </v>
    <v>       0.06666667       0.66666660       0.41800609 </v>
    <v>       0.26666667       0.66666660       0.41800609 </v>
    <v>       0.46666667       0.66666660       0.41800609 </v>
    <v>       0.66585366       0.66666660       0.41800609 </v>
    <v>       0.86666667       0.66666660       0.41800609 </v>
    <v>       0.06666667       0.86666660       0.41800609 </v>
    <v>       0.26666667       0.86666660       0.41800609 </v>
    <v>       0.46666667       0.86666660       0.41800609 </v>
    <v>       0.66666667       0.86666660       0.41800609 </v>
    <v>       0.86666667       0.86666660       0.41800609 </v>
    <v>       0.40000000       0.40000000       0.46800609 </v>
   </varray>
  </structure>
  <varray name="forces" >
   <v>      -0.04735531      -0.02741603       0.00934008 </v>
   <v>       0.04806396      -0.03075217       0.00947782 </v>
   <v>      -0.16553905       0.01621431      -0.02606913 </v>
   <v>      -0.00482190      -0.21011265      -0.02699993 </v>
   <v>       0.15846970       0.01597071      -0.02588302 </v>
   <v>      -0.00017030       0.05221111       0.00936824 </v>
   <v>       0.42872852       0.24767988      -0.00001412 </v>
   <v>       0.09630708      -0.20716854       0.16484535 </v>
   <v>      -0.09708932      -0.20324631       0.16464308 </v>
   <v>      -0.42816484       0.24844575       0.00001431 </v>
   <v>      -0.05862303      -0.14975843      -0.02563936 </v>
   <v>      -0.12437294       0.18323556       0.16406874 </v>
   <v>      -0.01215893      -0.00495944     -48.16237317 </v>
   <v>       0.14100894       0.18546628       0.16708126 </v>
   <v>       0.04996183      -0.14668402      -0.02664997 </v>
   <v>      -0.17760763       0.09531585      -0.02689217 </v>
   <v>      -0.22564533       0.01876103       0.16471013 </v>
   <v>       0.22667011       0.03016698       0.16676277 </v>
   <v>      -0.04869140       0.03192192      -0.02709311 </v>
   <v>      -0.21559901       0.04944007       0.01777892 </v>
   <v>       0.09461476       0.13061676      -0.02612550 </v>
   <v>       0.00150294      -0.49584203      -0.00005940 </v>
   <v>      -0.09003951       0.12040194      -0.02640091 </v>
   <v>      -0.11568786       0.00531292       0.01784610 </v>
   <v>       0.01353928       0.01820509       0.01780095 </v>
   <v>      -0.00142422       0.00234225      -0.00610023 </v>
   <v>       0.09905830      -0.21650831       0.01016292 </v>
   <v>       0.19301830       0.25243897       0.25712227 </v>
   <v>      -0.19265605       0.24749517       0.25711917 </v>
   <v>      -0.09706857      -0.21738814       0.01007877 </v>
   <v>      -0.13862093       0.19528710       0.01013186 </v>
   <v>      -0.44217581      -0.25291231      -0.35525734 </v>
   <v>       0.00198172      -5.07913513      -4.35187326 </v>
   <v>       0.44282541      -0.25510953      -0.35492255 </v>
   <v>       0.13774487       0.19385699       0.01020538 </v>
   <v>       0.30775753       0.04561371       0.25725772 </v>
   <v>      -4.40104697       2.53980044      -4.35355475 </v>
   <v>       4.38630116       2.53483952      -4.33903312 </v>
   <v>      -0.30791671       0.00761450       0.25655751 </v>
   <v>       0.00679719       0.11881263      -0.02214632 </v>
   <v>       0.11824089      -0.29274038       0.25691098 </v>
   <v>      -0.00038589       0.51072896      -0.35487592 </v>
   <v>      -0.16896886      -0.29196930       0.25704650 </v>
   <v>       0.54818533      -0.03832790      -0.02631389 </v>
   <v>       0.03418286      -0.05023147      -0.02642515 </v>
   <v>      -0.23840401       0.02447307       0.01004178 </v>
   <v>       0.23325139       0.02753532       0.01026363 </v>
   <v>       0.07861781      -0.01147286      -0.02229171 </v>
   <v>       0.00786086       0.06499266      -0.02641525 </v>
   <v>      -0.07573508      -0.04280337      -0.02209225 </v>
   <v>       0.02127872       0.00934086      59.98486530 </v>
  </varray>
  <varray name="stress" >
   <v>       9.51766013       0.06420754       0.01290894 </v>
   <v>       0.06420753       9.50320920       0.00568932 </v>
   <v>       0.01290895       0.00568933      31.89666775 </v>
  </varray>
  <energy>
   <i name="e_fr_energy">   -454.33822022 </i>
   <i name="e_wo_entrp">   -454.33816177 </i>
   <i name="e_0_energy">     -0.00011691 </i>
  </energy>
  <time name="totalsc">   42.51   42.57</time>
  <eigenvalues>
   <array>
    <dimension dim="1">band</dimension>
    <dimension dim="2">kpoint</dimension>
    <dimension dim="3">spin</dimension>
    <field>eigene</field>
    <field>occ</field>
    <set>
     <set comment="spin 1">
      <set comment="kpoint 1">
       <r>  -31.7407    1.0000 </r>
       <r>  -22.2707    1.0000 </r>
       <r>  -21.5046    1.0000 </r>
       <r>  -21.5028    1.0000 </r>
       <r>  -21.3976    1.0000 </r>
       <r>  -21.3937    1.0000 </r>
       <r>  -21.3898    1.0000 </r>
       <r>  -20.8717    1.0000 </r>
       <r>  -19.8800    1.0000 </r>
       <r>  -19.8751    1.0000 </r>
       <r>  -19.5537    1.0000 </r>
       <r>  -19.5488    1.0000 </r>
       <r>  -19.5388    1.0000 </r>
       <r>  -19.1859    1.0000 </r>
       <r>  -18.9012    1.0000 </r>
       <r>  -18.8985    1.0000 </r>
       <r>  -18.6491    1.0000 </r>
       <r>  -18.6426    1.0000 </r>
       <r>  -18.6369    1.0000 </r>
       <r>  -17.8863    1.0000 </r>
       <r>  -17.0212    1.0000 </r>
       <r>  -17.0200    1.0000 </r>
       <r>  -16.4776    1.0000 </r>
       <r>  -16.4612    1.0000 </r>
       <r>  -16.4577    1.0000 </r>
       <r>  -16.0485    1.0000 </r>
       <r>  -16.0016    1.0000 </r>
       <r>  -15.9909    1.0000 </r>
       <r>  -15.4976    1.0000 </r>
       <r>  -15.4952    1.0000 </r>
       <r>  -15.4933    1.0000 </r>
       <r>  -15.0886    1.0000 </r>
       <r>  -14.6292    1.0000 </r>
       <r>  -14.6270    1.0000 </r>
       <r>  -14.1525    1.0000 </r>
       <r>  -14.1491    1.0000 </r>
       <r>  -14.1454    1.0000 </r>
       <r>  -13.9630    1.0000 </r>
       <r>  -12.9916    1.0000 </r>
       <r>  -12.9883    1.0000 </r>
       <r>  -12.0364    1.0000 </r>
       <r>  -11.7660    1.0000 </r>
       <r>  -11.7639    1.0000 </r>
       <r>  -11.7608    1.0000 </r>
       <r>  -11.6922    1.0000 </r>
       <r>  -11.6861    1.0000 </r>
       <r>  -11.6539    1.0000 </r>
       <r>  -11.6522    1.0000 </r>
       <r>  -11.6453    1.0000 </r>
       <r>  -11.6435    1.0000 </r>
       <r>  -10.8016    1.0000 </r>
       <r>  -10.8004    1.0000 </r>
       <r>  -10.4310    1.0000 </r>
       <r>  -10.3340    1.0000 </r>
       <r>  -10.2919    1.0000 </r>
       <r>  -10.2889    1.0000 </r>
       <r>  -10.2670    1.0000 </r>
       <r>  -10.0773    1.0000 </r>
       <r>   -9.6946    1.0000 </r>
       <r>   -9.6832    1.0000 </r>
       <r>   -9.3257    1.0000 </r>
       <r>   -9.3253    1.0000 </r>
       <r>   -9.2984    1.0000 </r>
       <r>   -9.2840    1.0000 </r>
       <r>   -9.2785    1.0000 </r>
       <r>   -9.0458    1.0000 </r>
       <r>   -9.0039    1.0000 </r>
       <r>   -9.0001    1.0000 </r>
       <r>   -8.9459    1.0000 </r>
       <r>   -8.9428    1.0000 </r>
       <r>   -8.9397    1.0000 </r>
       <r>   -8.9391    1.0000 </r>
       <r>   -8.9182    1.0000 </r>
       <r>   -8.9094    1.0000 </r>
       <r>   -8.8952    1.0000 </r>
       <r>   -8.4355    1.0000 </r>
       <r>   -7.8052    1.0000 </r>
       <r>   -7.7996    1.0000 </r>
       <r>   -7.3349    1.0000 </r>
       <r>   -7.3183    1.0000 </r>
       <r>   -7.3098    1.0000 </r>
       <r>   -7.3026    1.0000 </r>
       <r>   -7.2987    1.0000 </r>
       <r>   -7.2945    1.0000 </r>
       <r>   -7.1660    1.0000 </r>
       <r>   -7.1606    1.0000 </r>
       <r>   -7.1549    1.0000 </r>
       <r>   -6.7481    1.0000 </r>
       <r>   -6.5073    1.0000 </r>
       <r>   -6.5062    1.0000 </r>
       <r>   -6.2663    1.0000 </r>
       <r>   -6.2484    1.0000 </r>
       <r>   -6.2427    1.0000 </r>
       <r>   -5.9287    1.0000 </r>
       <r>   -5.9148    1.0000 </r>
       <r>   -5.1980    1.0000 </r>
       <r>   -4.7638    1.0000 </r>
       <r>   -4.7603    1.0000 </r>
       <r>   -4.2705    1.0000 </r>
       <r>   -4.2699    1.0000 </r>
       <r>   -4.2660    1.0000 </r>
       <r>   -3.2160    1.0000 </r>
       <r>   -3.2133    1.0000 </r>
       <r>   -2.9159    0.0022 </r>
       <r>   -1.4613    0.0000 </r>
       <r>   -1.4568    0.0000 </r>
       <r>   -1.4522    0.0000 </r>
       <r>   -0.9976    0.0000 </r>
       <r>   -0.9892    0.0000 </r>
       <r>   -0.5398    0.0000 </r>
       <r>    0.4102    0.0000 </r>
       <r>    0.4202    0.0000 </r>
       <r>    0.4257    0.0000 </r>
       <r>    0.5620    0.0000 </r>
       <r>    0.8438    0.0000 </r>
       <r>    0.8450    0.0000 </r>
       <r>    1.2917    0.0000 </r>
       <r>    1.3391    0.0000 </r>
       <r>    1.6813    0.0000 </r>
       <r>    1.8011    0.0000 </r>
       <r>    1.8031    0.0000 </r>
       <r>    1.8039    0.0000 </r>
       <r>    1.8241    0.0000 </r>
       <r>    1.8279    0.0000 </r>
       <r>    2.0304    0.0000 </r>
       <r>    2.1767    0.0000 </r>
       <r>    2.1797    0.0000 </r>
       <r>    2.1861    0.0000 </r>
       <r>    2.3441    0.0000 </r>
       <r>    2.3500    0.0000 </r>
       <r>    2.6125    0.0000 </r>
       <r>    2.6469    0.0000 </r>
      </set>
      <set comment="kpoint 2">
       <r>  -31.7408    1.0000 </r>
       <r>  -22.1883    1.0000 </r>
       <r>  -21.8699    1.0000 </r>
       <r>  -21.6622    1.0000 </r>
       <r>  -21.4526    1.0000 </r>
       <r>  -21.0353    1.0000 </r>
       <r>  -20.8964    1.0000 </r>
       <r>  -20.7252    1.0000 </r>
       <r>  -20.4211    1.0000 </r>
       <r>  -20.1631    1.0000 </r>
       <r>  -19.7856    1.0000 </r>
       <r>  -19.7019    1.0000 </r>
       <r>  -19.3250    1.0000 </r>
       <r>  -19.2419    1.0000 </r>
       <r>  -19.0615    1.0000 </r>
       <r>  -18.5932    1.0000 </r>
       <r>  -18.4560    1.0000 </r>
       <r>  -18.1206    1.0000 </r>
       <r>  -18.0633    1.0000 </r>
       <r>  -17.5908    1.0000 </r>
       <r>  -17.4974    1.0000 </r>
       <r>  -17.2996    1.0000 </r>
       <r>  -17.2780    1.0000 </r>
       <r>  -16.8518    1.0000 </r>
       <r>  -16.6593    1.0000 </r>
       <r>  -16.1746    1.0000 </r>
       <r>  -15.9783    1.0000 </r>
       <r>  -15.8447    1.0000 </r>
       <r>  -15.2995    1.0000 </r>
       <r>  -15.1713    1.0000 </r>
       <r>  -15.1349    1.0000 </r>
       <r>  -14.8853    1.0000 </r>
       <r>  -14.7799    1.0000 </r>
       <r>  -14.4775    1.0000 </r>
       <r>  -14.4557    1.0000 </r>
       <r>  -13.7656    1.0000 </r>
       <r>  -13.7605    1.0000 </r>
       <r>  -13.1969    1.0000 </r>
       <r>  -13.0886    1.0000 </r>
       <r>  -12.9336    1.0000 </r>
       <r>  -12.9016    1.0000 </r>
       <r>  -12.5854    1.0000 </r>
       <r>  -12.5488    1.0000 </r>
       <r>  -12.3916    1.0000 </r>
       <r>  -12.0210    1.0000 </r>
       <r>  -11.6653    1.0000 </r>
       <r>  -11.4484    1.0000 </r>
       <r>  -11.2954    1.0000 </r>
       <r>  -11.1223    1.0000 </r>
       <r>  -10.9106    1.0000 </r>
       <r>  -10.8542    1.0000 </r>
       <r>  -10.5838    1.0000 </r>
       <r>  -10.5317    1.0000 </r>
       <r>  -10.2842    1.0000 </r>
       <r>  -10.2364    1.0000 </r>
       <r>  -10.1632    1.0000 </r>
       <r>  -10.0484    1.0000 </r>
       <r>   -9.8539    1.0000 </r>
       <r>   -9.8193    1.0000 </r>
       <r>   -9.6546    1.0000 </r>
       <r>   -9.6056    1.0000 </r>
       <r>   -9.5612    1.0000 </r>
       <r>   -9.5251    1.0000 </r>
       <r>   -9.3715    1.0000 </r>
       <r>   -9.3395    1.0000 </r>
       <r>   -9.2585    1.0000 </r>
       <r>   -9.1741    1.0000 </r>
       <r>   -9.0986    1.0000 </r>
       <r>   -9.0802    1.0000 </r>
       <r>   -8.8650    1.0000 </r>
       <r>   -8.7138    1.0000 </r>
       <r>   -8.6643    1.0000 </r>
       <r>   -8.5033    1.0000 </r>
       <r>   -8.4035    1.0000 </r>
       <r>   -8.2887    1.0000 </r>
       <r>   -8.1348    1.0000 </r>
       <r>   -8.0922    1.0000 </r>
       <r>   -8.0664    1.0000 </r>
       <r>   -7.9745    1.0000 </r>
       <r>   -7.8084    1.0000 </r>
       <r>   -7.6208    1.0000 </r>
       <r>   -7.3600    1.0000 </r>
       <r>   -7.3378    1.0000 </r>
       <r>   -7.2592    1.0000 </r>
       <r>   -7.1953    1.0000 </r>
       <r>   -6.9189    1.0000 </r>
       <r>   -6.8724    1.0000 </r>
       <r>   -6.6966    1.0000 </r>
       <r>   -6.5899    1.0000 </r>
       <r>   -6.3424    1.0000 </r>
       <r>   -6.1879    1.0000 </r>
       <r>   -6.0759    1.0000 </r>
       <r>   -5.9197    1.0000 </r>
       <r>   -5.7381    1.0000 </r>
       <r>   -5.6420    1.0000 </r>
       <r>   -5.3238    1.0000 </r>
       <r>   -5.1126    1.0000 </r>
       <r>   -4.9710    1.0000 </r>
       <r>   -4.9242    1.0000 </r>
       <r>   -4.2697    1.0000 </r>
       <r>   -4.1686    1.0000 </r>
       <r>   -3.3366    1.0000 </r>
       <r>   -3.1355    0.9996 </r>
       <r>   -2.8043    0.0000 </r>
       <r>   -1.5931    0.0000 </r>
       <r>   -1.4236    0.0000 </r>
       <r>   -0.8366    0.0000 </r>
       <r>   -0.8184    0.0000 </r>
       <r>   -0.7048    0.0000 </r>
       <r>   -0.6690    0.0000 </r>
       <r>   -0.1264    0.0000 </r>
       <r>   -0.0088    0.0000 </r>
       <r>    0.2911    0.0000 </r>
       <r>    0.7044    0.0000 </r>
       <r>    0.7285    0.0000 </r>
       <r>    1.0993    0.0000 </r>
       <r>    1.1749    0.0000 </r>
       <r>    1.3642    0.0000 </r>
       <r>    1.4626    0.0000 </r>
       <r>    1.5369    0.0000 </r>
       <r>    1.5703    0.0000 </r>
       <r>    1.6372    0.0000 </r>
       <r>    1.8309    0.0000 </r>
       <r>    1.9116    0.0000 </r>
       <r>    2.0382    0.0000 </r>
       <r>    2.2225    0.0000 </r>
       <r>    2.2717    0.0000 </r>
       <r>    2.3294    0.0000 </r>
       <r>    2.3390    0.0000 </r>
       <r>    2.3949    0.0000 </r>
       <r>    2.4575    0.0000 </r>
       <r>    2.7955    0.0000 </r>
      </set>
      <set comment="kpoint 3">
       <r>  -31.7408    1.0000 </r>
       <r>  -22.1886    1.0000 </r>
       <r>  -21.8686    1.0000 </r>
       <r>  -21.6629    1.0000 </r>
       <r>  -21.4530    1.0000 </r>
       <r>  -21.0364    1.0000 </r>
       <r>  -20.8940    1.0000 </r>
       <r>  -20.7268    1.0000 </r>
       <r>  -20.4226    1.0000 </r>
       <r>  -20.1610    1.0000 </r>
       <r>  -19.7845    1.0000 </r>
       <r>  -19.7010    1.0000 </r>
       <r>  -19.3250    1.0000 </r>
       <r>  -19.2443    1.0000 </r>
       <r>  -19.0620    1.0000 </r>
       <r>  -18.5938    1.0000 </r>
       <r>  -18.4551    1.0000 </r>
       <r>  -18.1237    1.0000 </r>
       <r>  -18.0611    1.0000 </r>
       <r>  -17.5886    1.0000 </r>
       <r>  -17.4982    1.0000 </r>
       <r>  -17.2974    1.0000 </r>
       <r>  -17.2794    1.0000 </r>
       <r>  -16.8514    1.0000 </r>
       <r>  -16.6581    1.0000 </r>
       <r>  -16.1766    1.0000 </r>
       <r>  -15.9774    1.0000 </r>
       <r>  -15.8482    1.0000 </r>
       <r>  -15.3000    1.0000 </r>
       <r>  -15.1720    1.0000 </r>
       <r>  -15.1327    1.0000 </r>
       <r>  -14.8848    1.0000 </r>
       <r>  -14.7796    1.0000 </r>
       <r>  -14.4742    1.0000 </r>
       <r>  -14.4576    1.0000 </r>
       <r>  -13.7674    1.0000 </r>
       <r>  -13.7582    1.0000 </r>
       <r>  -13.1966    1.0000 </r>
       <r>  -13.0903    1.0000 </r>
       <r>  -12.9349    1.0000 </r>
       <r>  -12.9017    1.0000 </r>
       <r>  -12.5832    1.0000 </r>
       <r>  -12.5519    1.0000 </r>
       <r>  -12.3892    1.0000 </r>
       <r>  -12.0222    1.0000 </r>
       <r>  -11.6640    1.0000 </r>
       <r>  -11.4488    1.0000 </r>
       <r>  -11.2957    1.0000 </r>
       <r>  -11.1217    1.0000 </r>
       <r>  -10.9130    1.0000 </r>
       <r>  -10.8531    1.0000 </r>
       <r>  -10.5826    1.0000 </r>
       <r>  -10.5311    1.0000 </r>
       <r>  -10.2842    1.0000 </r>
       <r>  -10.2367    1.0000 </r>
       <r>  -10.1645    1.0000 </r>
       <r>  -10.0481    1.0000 </r>
       <r>   -9.8529    1.0000 </r>
       <r>   -9.8179    1.0000 </r>
       <r>   -9.6544    1.0000 </r>
       <r>   -9.6063    1.0000 </r>
       <r>   -9.5613    1.0000 </r>
       <r>   -9.5262    1.0000 </r>
       <r>   -9.3715    1.0000 </r>
       <r>   -9.3403    1.0000 </r>
       <r>   -9.2586    1.0000 </r>
       <r>   -9.1730    1.0000 </r>
       <r>   -9.1025    1.0000 </r>
       <r>   -9.0807    1.0000 </r>
       <r>   -8.8656    1.0000 </r>
       <r>   -8.7121    1.0000 </r>
       <r>   -8.6620    1.0000 </r>
       <r>   -8.5040    1.0000 </r>
       <r>   -8.4007    1.0000 </r>
       <r>   -8.2886    1.0000 </r>
       <r>   -8.1352    1.0000 </r>
       <r>   -8.0905    1.0000 </r>
       <r>   -8.0668    1.0000 </r>
       <r>   -7.9729    1.0000 </r>
       <r>   -7.8069    1.0000 </r>
       <r>   -7.6204    1.0000 </r>
       <r>   -7.3589    1.0000 </r>
       <r>   -7.3392    1.0000 </r>
       <r>   -7.2665    1.0000 </r>
       <r>   -7.1968    1.0000 </r>
       <r>   -6.9187    1.0000 </r>
       <r>   -6.8733    1.0000 </r>
       <r>   -6.6926    1.0000 </r>
       <r>   -6.5911    1.0000 </r>
       <r>   -6.3479    1.0000 </r>
       <r>   -6.1844    1.0000 </r>
       <r>   -6.0741    1.0000 </r>
       <r>   -5.9184    1.0000 </r>
       <r>   -5.7405    1.0000 </r>
       <r>   -5.6416    1.0000 </r>
       <r>   -5.3201    1.0000 </r>
       <r>   -5.1148    1.0000 </r>
       <r>   -4.9681    1.0000 </r>
       <r>   -4.9247    1.0000 </r>
       <r>   -4.2703    1.0000 </r>
       <r>   -4.1691    1.0000 </r>
       <r>   -3.3363    1.0000 </r>
       <r>   -3.1370    0.9997 </r>
       <r>   -2.8045    0.0000 </r>
       <r>   -1.5916    0.0000 </r>
       <r>   -1.4223    0.0000 </r>
       <r>   -0.8377    0.0000 </r>
       <r>   -0.8159    0.0000 </r>
       <r>   -0.7094    0.0000 </r>
       <r>   -0.6683    0.0000 </r>
       <r>   -0.1290    0.0000 </r>
       <r>   -0.0060    0.0000 </r>
       <r>    0.2907    0.0000 </r>
       <r>    0.7043    0.0000 </r>
       <r>    0.7275    0.0000 </r>
       <r>    1.1000    0.0000 </r>
       <r>    1.1759    0.0000 </r>
       <r>    1.3661    0.0000 </r>
       <r>    1.4634    0.0000 </r>
       <r>    1.5368    0.0000 </r>
       <r>    1.5698    0.0000 </r>
       <r>    1.6368    0.0000 </r>
       <r>    1.8318    0.0000 </r>
       <r>    1.9130    0.0000 </r>
       <r>    2.0446    0.0000 </r>
       <r>    2.2254    0.0000 </r>
       <r>    2.2747    0.0000 </r>
       <r>    2.3362    0.0000 </r>
       <r>    2.4266    0.0000 </r>
       <r>    2.7389    0.0000 </r>
       <r>    3.2539    0.0000 </r>
       <r>    3.6106    0.0000 </r>
      </set>
      <set comment="kpoint 4">
       <r>  -31.7408    1.0000 </r>
       <r>  -22.1888    1.0000 </r>
       <r>  -21.8684    1.0000 </r>
       <r>  -21.6607    1.0000 </r>
       <r>  -21.4568    1.0000 </r>
       <r>  -21.0339    1.0000 </r>
       <r>  -20.8960    1.0000 </r>
       <r>  -20.7255    1.0000 </r>
       <r>  -20.4193    1.0000 </r>
       <r>  -20.1644    1.0000 </r>
       <r>  -19.7875    1.0000 </r>
       <r>  -19.6989    1.0000 </r>
       <r>  -19.3278    1.0000 </r>
       <r>  -19.2417    1.0000 </r>
       <r>  -19.0603    1.0000 </r>
       <r>  -18.5920    1.0000 </r>
       <r>  -18.4572    1.0000 </r>
       <r>  -18.1197    1.0000 </r>
       <r>  -18.0658    1.0000 </r>
       <r>  -17.5892    1.0000 </r>
       <r>  -17.4972    1.0000 </r>
       <r>  -17.2999    1.0000 </r>
       <r>  -17.2756    1.0000 </r>
       <r>  -16.8519    1.0000 </r>
       <r>  -16.6586    1.0000 </r>
       <r>  -16.1835    1.0000 </r>
       <r>  -15.9775    1.0000 </r>
       <r>  -15.8427    1.0000 </r>
       <r>  -15.2966    1.0000 </r>
       <r>  -15.1699    1.0000 </r>
       <r>  -15.1333    1.0000 </r>
       <r>  -14.8856    1.0000 </r>
       <r>  -14.7797    1.0000 </r>
       <r>  -14.4796    1.0000 </r>
       <r>  -14.4546    1.0000 </r>
       <r>  -13.7693    1.0000 </r>
       <r>  -13.7582    1.0000 </r>
       <r>  -13.1958    1.0000 </r>
       <r>  -13.0865    1.0000 </r>
       <r>  -12.9335    1.0000 </r>
       <r>  -12.9062    1.0000 </r>
       <r>  -12.5847    1.0000 </r>
       <r>  -12.5544    1.0000 </r>
       <r>  -12.3885    1.0000 </r>
       <r>  -12.0200    1.0000 </r>
       <r>  -11.6645    1.0000 </r>
       <r>  -11.4492    1.0000 </r>
       <r>  -11.2936    1.0000 </r>
       <r>  -11.1206    1.0000 </r>
       <r>  -10.9144    1.0000 </r>
       <r>  -10.8466    1.0000 </r>
       <r>  -10.5860    1.0000 </r>
       <r>  -10.5324    1.0000 </r>
       <r>  -10.2862    1.0000 </r>
       <r>  -10.2368    1.0000 </r>
       <r>  -10.1593    1.0000 </r>
       <r>  -10.0507    1.0000 </r>
       <r>   -9.8528    1.0000 </r>
       <r>   -9.8174    1.0000 </r>
       <r>   -9.6531    1.0000 </r>
       <r>   -9.6071    1.0000 </r>
       <r>   -9.5682    1.0000 </r>
       <r>   -9.5266    1.0000 </r>
       <r>   -9.3708    1.0000 </r>
       <r>   -9.3417    1.0000 </r>
       <r>   -9.2609    1.0000 </r>
       <r>   -9.1749    1.0000 </r>
       <r>   -9.0988    1.0000 </r>
       <r>   -9.0846    1.0000 </r>
       <r>   -8.8623    1.0000 </r>
       <r>   -8.7053    1.0000 </r>
       <r>   -8.6639    1.0000 </r>
       <r>   -8.5034    1.0000 </r>
       <r>   -8.3996    1.0000 </r>
       <r>   -8.2874    1.0000 </r>
       <r>   -8.1321    1.0000 </r>
       <r>   -8.0936    1.0000 </r>
       <r>   -8.0640    1.0000 </r>
       <r>   -7.9662    1.0000 </r>
       <r>   -7.8092    1.0000 </r>
       <r>   -7.6252    1.0000 </r>
       <r>   -7.3607    1.0000 </r>
       <r>   -7.3365    1.0000 </r>
       <r>   -7.2740    1.0000 </r>
       <r>   -7.1964    1.0000 </r>
       <r>   -6.9229    1.0000 </r>
       <r>   -6.8721    1.0000 </r>
       <r>   -6.6901    1.0000 </r>
       <r>   -6.5916    1.0000 </r>
       <r>   -6.3531    1.0000 </r>
       <r>   -6.1793    1.0000 </r>
       <r>   -6.0706    1.0000 </r>
       <r>   -5.9207    1.0000 </r>
       <r>   -5.7382    1.0000 </r>
       <r>   -5.6427    1.0000 </r>
       <r>   -5.3200    1.0000 </r>
       <r>   -5.1143    1.0000 </r>
       <r>   -4.9681    1.0000 </r>
       <r>   -4.9220    1.0000 </r>
       <r>   -4.2745    1.0000 </r>
       <r>   -4.1689    1.0000 </r>
       <r>   -3.3390    1.0000 </r>
       <r>   -3.1356    0.9996 </r>
       <r>   -2.8027    0.0000 </r>
       <r>   -1.5912    0.0000 </r>
       <r>   -1.4192    0.0000 </r>
       <r>   -0.8401    0.0000 </r>
       <r>   -0.8185    0.0000 </r>
       <r>   -0.7089    0.0000 </r>
       <r>   -0.6671    0.0000 </r>
       <r>   -0.1298    0.0000 </r>
       <r>   -0.0050    0.0000 </r>
       <r>    0.2897    0.0000 </r>
       <r>    0.7045    0.0000 </r>
       <r>    0.7278    0.0000 </r>
       <r>    1.0991    0.0000 </r>
       <r>    1.1745    0.0000 </r>
       <r>    1.3667    0.0000 </r>
       <r>    1.4644    0.0000 </r>
       <r>    1.5625    0.0000 </r>
       <r>    1.5813    0.0000 </r>
       <r>    1.7512    0.0000 </r>
       <r>    1.8322    0.0000 </r>
       <r>    2.1796    0.0000 </r>
       <r>    2.3357    0.0000 </r>
       <r>    2.3970    0.0000 </r>
       <r>    2.6189    0.0000 </r>
       <r>    2.7879    0.0000 </r>
       <r>    2.8471    0.0000 </r>
       <r>    3.2036    0.0000 </r>
       <r>    3.5954    0.0000 </r>
       <r>    4.1675    0.0000 </r>
      </set>
      <set comment="kpoint 5">
       <r>  -31.7408    1.0000 </r>
       <r>  -22.0802    1.0000 </r>
       <r>  -22.0068    1.0000 </r>
       <r>  -21.8025    1.0000 </r>
       <r>  -21.1737    1.0000 </r>
       <r>  -21.1478    1.0000 </r>
       <r>  -20.8668    1.0000 </r>
       <r>  -20.4133    1.0000 </r>
       <r>  -20.3402    1.0000 </r>
       <r>  -20.1719    1.0000 </r>
       <r>  -20.1530    1.0000 </r>
       <r>  -20.1373    1.0000 </r>
       <r>  -19.5687    1.0000 </r>
       <r>  -18.8264    1.0000 </r>
       <r>  -18.6735    1.0000 </r>
       <r>  -18.3707    1.0000 </r>
       <r>  -18.3483    1.0000 </r>
       <r>  -18.3385    1.0000 </r>
       <r>  -17.9294    1.0000 </r>
       <r>  -17.8016    1.0000 </r>
       <r>  -17.5997    1.0000 </r>
       <r>  -17.2615    1.0000 </r>
       <r>  -17.1529    1.0000 </r>
       <r>  -17.1198    1.0000 </r>
       <r>  -16.5435    1.0000 </r>
       <r>  -16.4381    1.0000 </r>
       <r>  -16.2848    1.0000 </r>
       <r>  -15.8085    1.0000 </r>
       <r>  -15.6289    1.0000 </r>
       <r>  -15.1759    1.0000 </r>
       <r>  -14.9703    1.0000 </r>
       <r>  -14.6507    1.0000 </r>
       <r>  -13.9602    1.0000 </r>
       <r>  -13.9386    1.0000 </r>
       <r>  -13.9231    1.0000 </r>
       <r>  -13.8731    1.0000 </r>
       <r>  -13.8645    1.0000 </r>
       <r>  -13.7920    1.0000 </r>
       <r>  -13.6738    1.0000 </r>
       <r>  -13.4933    1.0000 </r>
       <r>  -13.0372    1.0000 </r>
       <r>  -12.4767    1.0000 </r>
       <r>  -12.2529    1.0000 </r>
       <r>  -12.0741    1.0000 </r>
       <r>  -11.8206    1.0000 </r>
       <r>  -11.7728    1.0000 </r>
       <r>  -11.5642    1.0000 </r>
       <r>  -11.5479    1.0000 </r>
       <r>  -11.5207    1.0000 </r>
       <r>  -10.9289    1.0000 </r>
       <r>  -10.8177    1.0000 </r>
       <r>  -10.5308    1.0000 </r>
       <r>  -10.2060    1.0000 </r>
       <r>  -10.2023    1.0000 </r>
       <r>  -10.1926    1.0000 </r>
       <r>  -10.0947    1.0000 </r>
       <r>  -10.0539    1.0000 </r>
       <r>  -10.0211    1.0000 </r>
       <r>   -9.9066    1.0000 </r>
       <r>   -9.7523    1.0000 </r>
       <r>   -9.7444    1.0000 </r>
       <r>   -9.5642    1.0000 </r>
       <r>   -9.4391    1.0000 </r>
       <r>   -9.4073    1.0000 </r>
       <r>   -9.1961    1.0000 </r>
       <r>   -9.0466    1.0000 </r>
       <r>   -9.0345    1.0000 </r>
       <r>   -8.9011    1.0000 </r>
       <r>   -8.8851    1.0000 </r>
       <r>   -8.6855    1.0000 </r>
       <r>   -8.6421    1.0000 </r>
       <r>   -8.6315    1.0000 </r>
       <r>   -8.6252    1.0000 </r>
       <r>   -8.5805    1.0000 </r>
       <r>   -8.3727    1.0000 </r>
       <r>   -8.2490    1.0000 </r>
       <r>   -8.1693    1.0000 </r>
       <r>   -8.0349    1.0000 </r>
       <r>   -7.9843    1.0000 </r>
       <r>   -7.8797    1.0000 </r>
       <r>   -7.8606    1.0000 </r>
       <r>   -7.8508    1.0000 </r>
       <r>   -7.2249    1.0000 </r>
       <r>   -7.1827    1.0000 </r>
       <r>   -7.1289    1.0000 </r>
       <r>   -6.8879    1.0000 </r>
       <r>   -6.7226    1.0000 </r>
       <r>   -6.6115    1.0000 </r>
       <r>   -6.4560    1.0000 </r>
       <r>   -6.2688    1.0000 </r>
       <r>   -6.1005    1.0000 </r>
       <r>   -5.9174    1.0000 </r>
       <r>   -5.9101    1.0000 </r>
       <r>   -5.8992    1.0000 </r>
       <r>   -5.4525    1.0000 </r>
       <r>   -5.4242    1.0000 </r>
       <r>   -5.1197    1.0000 </r>
       <r>   -5.0147    1.0000 </r>
       <r>   -4.9797    1.0000 </r>
       <r>   -4.9587    1.0000 </r>
       <r>   -3.7344    1.0000 </r>
       <r>   -3.4575    1.0000 </r>
       <r>   -3.2808    1.0000 </r>
       <r>   -2.3858    0.0000 </r>
       <r>   -2.2246    0.0000 </r>
       <r>   -0.9262    0.0000 </r>
       <r>   -0.8829    0.0000 </r>
       <r>   -0.8671    0.0000 </r>
       <r>   -0.5403    0.0000 </r>
       <r>   -0.2637    0.0000 </r>
       <r>   -0.2106    0.0000 </r>
       <r>    0.2513    0.0000 </r>
       <r>    0.2562    0.0000 </r>
       <r>    0.2653    0.0000 </r>
       <r>    0.5949    0.0000 </r>
       <r>    0.7936    0.0000 </r>
       <r>    0.9482    0.0000 </r>
       <r>    0.9743    0.0000 </r>
       <r>    1.0602    0.0000 </r>
       <r>    1.7328    0.0000 </r>
       <r>    1.7455    0.0000 </r>
       <r>    1.7695    0.0000 </r>
       <r>    1.8259    0.0000 </r>
       <r>    2.1180    0.0000 </r>
       <r>    2.1231    0.0000 </r>
       <r>    2.1288    0.0000 </r>
       <r>    2.2463    0.0000 </r>
       <r>    2.2471    0.0000 </r>
       <r>    2.3614    0.0000 </r>
       <r>    3.0008    0.0000 </r>
       <r>    3.0122    0.0000 </r>
       <r>    3.0391    0.0000 </r>
      </set>
     </set>
    </set>
   </array>
  </eigenvalues>
  <separator name="orbital magnetization" >
   <v name="MAGDIPOLOUT">      0.00000000      0.00000000      0.00000000</v>
  </separator>
  <dos>
   <i name="efermi">     -3.01662382 </i>
   <total>
    <array>
     <dimension dim="1">gridpoints</dimension>
     <dimension dim="2">spin</dimension>
     <field>energy</field>
     <field>total</field>
     <field>integrated</field>
     <set>
      <set comment="spin 1">
       <r>   -33.5363     0.0000     0.0000 </r>
       <r>   -33.4046     0.0000     0.0000 </r>
       <r>   -33.2729     0.0000     0.0000 </r>
       <r>   -33.1413     0.0000     0.0000 </r>
       <r>   -33.0096     0.0000     0.0000 </r>
       <r>   -32.8779     0.0000     0.0000 </r>
       <r>   -32.7463     0.0000     0.0000 </r>
       <r>   -32.6146     0.0000     0.0000 </r>
       <r>   -32.4829     0.0000     0.0000 </r>
       <r>   -32.3513     0.0000     0.0000 </r>
       <r>   -32.2196     0.0000     0.0000 </r>
       <r>   -32.0880     0.0000     0.0000 </r>
       <r>   -31.9563     0.0000     0.0000 </r>
       <r>   -31.8246     0.1347     0.0177 </r>
       <r>   -31.6930    13.7180     1.8239 </r>
       <r>   -31.5613     1.3375     2.0000 </r>
       <r>   -31.4296     0.0000     2.0000 </r>
       <r>   -31.2980     0.0000     2.0000 </r>
       <r>   -31.1663     0.0000     2.0000 </r>
       <r>   -31.0346     0.0000     2.0000 </r>
       <r>   -30.9030     0.0000     2.0000 </r>
       <r>   -30.7713     0.0000     2.0000 </r>
       <r>   -30.6397     0.0000     2.0000 </r>
       <r>   -30.5080     0.0000     2.0000 </r>
       <r>   -30.3763     0.0000     2.0000 </r>
       <r>   -30.2447     0.0000     2.0000 </r>
       <r>   -30.1130     0.0000     2.0000 </r>
       <r>   -29.9813     0.0000     2.0000 </r>
       <r>   -29.8497     0.0000     2.0000 </r>
       <r>   -29.7180     0.0000     2.0000 </r>
       <r>   -29.5863     0.0000     2.0000 </r>
       <r>   -29.4547     0.0000     2.0000 </r>
       <r>   -29.3230     0.0000     2.0000 </r>
       <r>   -29.1913     0.0000     2.0000 </r>
       <r>   -29.0597     0.0000     2.0000 </r>
       <r>   -28.9280     0.0000     2.0000 </r>
       <r>   -28.7964     0.0000     2.0000 </r>
       <r>   -28.6647     0.0000     2.0000 </r>
       <r>   -28.5330     0.0000     2.0000 </r>
       <r>   -28.4014     0.0000     2.0000 </r>
       <r>   -28.2697     0.0000     2.0000 </r>
       <r>   -28.1380     0.0000     2.0000 </r>
       <r>   -28.0064     0.0000     2.0000 </r>
       <r>   -27.8747     0.0000     2.0000 </r>
       <r>   -27.7430     0.0000     2.0000 </r>
       <r>   -27.6114     0.0000     2.0000 </r>
       <r>   -27.4797     0.0000     2.0000 </r>
       <r>   -27.3481     0.0000     2.0000 </r>
       <r>   -27.2164     0.0000     2.0000 </r>
       <r>   -27.0847     0.0000     2.0000 </r>
       <r>   -26.9531     0.0000     2.0000 </r>
       <r>   -26.8214     0.0000     2.0000 </r>
       <r>   -26.6897     0.0000     2.0000 </r>
       <r>   -26.5581     0.0000     2.0000 </r>
       <r>   -26.4264     0.0000     2.0000 </r>
       <r>   -26.2947     0.0000     2.0000 </r>
       <r>   -26.1631     0.0000     2.0000 </r>
       <r>   -26.0314     0.0000     2.0000 </r>
       <r>   -25.8997     0.0000     2.0000 </r>
       <r>   -25.7681     0.0000     2.0000 </r>
       <r>   -25.6364     0.0000     2.0000 </r>
       <r>   -25.5048     0.0000     2.0000 </r>
       <r>   -25.3731     0.0000     2.0000 </r>
       <r>   -25.2414     0.0000     2.0000 </r>
       <r>   -25.1098     0.0000     2.0000 </r>
       <r>   -24.9781     0.0000     2.0000 </r>
       <r>   -24.8464     0.0000     2.0000 </r>
       <r>   -24.7148     0.0000     2.0000 </r>
       <r>   -24.5831     0.0000     2.0000 </r>
       <r>   -24.4514     0.0000     2.0000 </r>
       <r>   -24.3198     0.0000     2.0000 </r>
       <r>   -24.1881     0.0000     2.0000 </r>
       <r>   -24.0565     0.0000     2.0000 </r>
       <r>   -23.9248     0.0000     2.0000 </r>
       <r>   -23.7931     0.0000     2.0000 </r>
       <r>   -23.6615     0.0000     2.0000 </r>
       <r>   -23.5298     0.0000     2.0000 </r>
       <r>   -23.3981     0.0000     2.0000 </r>
       <r>   -23.2665     0.0000     2.0000 </r>
       <r>   -23.1348     0.0000     2.0000 </r>
       <r>   -23.0031     0.0000     2.0000 </r>
       <r>   -22.8715     0.0000     2.0000 </r>
       <r>   -22.7398     0.0000     2.0000 </r>
       <r>   -22.6081     0.0000     2.0000 </r>
       <r>   -22.4765     0.0000     2.0000 </r>
       <r>   -22.3448     0.0304     2.0040 </r>
       <r>   -22.2132     4.0356     2.5353 </r>
       <r>   -22.0815     9.4336     3.7774 </r>
       <r>   -21.9498     4.9973     4.4354 </r>
       <r>   -21.8182    10.5396     5.8231 </r>
       <r>   -21.6865     5.4985     6.5470 </r>
       <r>   -21.5548     7.9206     7.5899 </r>
       <r>   -21.4232    12.2982     9.2091 </r>
       <r>   -21.2915     5.9982     9.9989 </r>
       <r>   -21.1598     3.4521    10.4534 </r>
       <r>   -21.0282     9.1679    11.6605 </r>
       <r>   -20.8965    10.2960    13.0161 </r>
       <r>   -20.7648    10.5168    14.4008 </r>
       <r>   -20.6332     8.7262    15.5497 </r>
       <r>   -20.5015     0.1815    15.5736 </r>
       <r>   -20.3699    12.9214    17.2749 </r>
       <r>   -20.2382     4.1178    17.8170 </r>
       <r>   -20.1065    18.3165    20.2287 </r>
       <r>   -19.9749     1.6491    20.4458 </r>
       <r>   -19.8432     3.3364    20.8851 </r>
       <r>   -19.7115    13.8115    22.7036 </r>
       <r>   -19.5799     8.6531    23.8429 </r>
       <r>   -19.4482     6.2436    24.6649 </r>
       <r>   -19.3165     6.3254    25.4978 </r>
       <r>   -19.1849    14.2872    27.3789 </r>
       <r>   -19.0532     7.3166    28.3422 </r>
       <r>   -18.9216     5.0749    29.0104 </r>
       <r>   -18.7899     5.3176    29.7105 </r>
       <r>   -18.6582     4.7789    30.3397 </r>
       <r>   -18.5266    14.2244    32.2126 </r>
       <r>   -18.3949    11.1156    33.6761 </r>
       <r>   -18.2632     9.1245    34.8775 </r>
       <r>   -18.1316     4.2697    35.4396 </r>
       <r>   -17.9999    15.7771    37.5169 </r>
       <r>   -17.8682     4.8009    38.1490 </r>
       <r>   -17.7366     3.8206    38.6520 </r>
       <r>   -17.6049     4.9713    39.3066 </r>
       <r>   -17.4732    16.2772    41.4497 </r>
       <r>   -17.3416     4.0454    41.9823 </r>
       <r>   -17.2099    21.6884    44.8379 </r>
       <r>   -17.0783     6.8474    45.7395 </r>
       <r>   -16.9466     3.6418    46.2190 </r>
       <r>   -16.8149     8.6403    47.3566 </r>
       <r>   -16.6833     3.9733    47.8797 </r>
       <r>   -16.5516     9.0824    49.0756 </r>
       <r>   -16.4199     8.8370    50.2391 </r>
       <r>   -16.2883     3.1252    50.6506 </r>
       <r>   -16.1566     9.1873    51.8602 </r>
       <r>   -16.0249     5.6447    52.6034 </r>
       <r>   -15.8933    13.1163    54.3303 </r>
       <r>   -15.7616    12.2765    55.9467 </r>
       <r>   -15.6300     2.0539    56.2171 </r>
       <r>   -15.4983     4.0911    56.7558 </r>
       <r>   -15.3666     2.9762    57.1477 </r>
       <r>   -15.2350    10.0269    58.4678 </r>
       <r>   -15.1033    21.6943    61.3242 </r>
       <r>   -14.9716     5.1539    62.0028 </r>
       <r>   -14.8400    11.2262    63.4809 </r>
       <r>   -14.7083    10.6881    64.8881 </r>
       <r>   -14.5766     6.4784    65.7411 </r>
       <r>   -14.4450    14.8638    67.6981 </r>
       <r>   -14.3133     5.6681    68.4444 </r>
       <r>   -14.1816     0.9051    68.5636 </r>
       <r>   -14.0500     4.1791    69.1138 </r>
       <r>   -13.9183     9.3142    70.3402 </r>
       <r>   -13.7867    16.2223    72.4761 </r>
       <r>   -13.6550    18.9847    74.9757 </r>
       <r>   -13.5233     1.6967    75.1991 </r>
       <r>   -13.3917     2.7009    75.5547 </r>
       <r>   -13.2600     0.3731    75.6038 </r>
       <r>   -13.1283    10.8188    77.0282 </r>
       <r>   -12.9967    13.8343    78.8497 </r>
       <r>   -12.8650    20.5560    81.5562 </r>
       <r>   -12.7333     1.6831    81.7778 </r>
       <r>   -12.6017     3.9729    82.3009 </r>
       <r>   -12.4700    18.2274    84.7008 </r>
       <r>   -12.3384    10.8415    86.1282 </r>
       <r>   -12.2067     3.7667    86.6242 </r>
       <r>   -12.0750     2.8512    86.9996 </r>
       <r>   -11.9434    12.5134    88.6471 </r>
       <r>   -11.8117     3.0703    89.0514 </r>
       <r>   -11.6800    15.5038    91.0927 </r>
       <r>   -11.5484    18.3200    93.5047 </r>
       <r>   -11.4167    13.7299    95.3125 </r>
       <r>   -11.2850     8.0234    96.3689 </r>
       <r>   -11.1534     5.8122    97.1341 </r>
       <r>   -11.0217     8.2651    98.2223 </r>
       <r>   -10.8900    11.8766    99.7861 </r>
       <r>   -10.7584    17.9139   102.1447 </r>
       <r>   -10.6267     1.7942   102.3809 </r>
       <r>   -10.4951    20.3788   105.0641 </r>
       <r>   -10.3634     4.2350   105.6217 </r>
       <r>   -10.2317    23.0702   108.6592 </r>
       <r>   -10.1001    26.3053   112.1226 </r>
       <r>    -9.9684    19.0912   114.6363 </r>
       <r>    -9.8367    13.4838   116.4116 </r>
       <r>    -9.7051    18.2457   118.8139 </r>
       <r>    -9.5734    26.8231   122.3455 </r>
       <r>    -9.4417    21.6247   125.1927 </r>
       <r>    -9.3101    26.6455   128.7010 </r>
       <r>    -9.1784    23.5630   131.8034 </r>
       <r>    -9.0467    28.6045   135.5696 </r>
       <r>    -8.9151    19.9524   138.1966 </r>
       <r>    -8.7834    18.8533   140.6789 </r>
       <r>    -8.6518    21.8239   143.5523 </r>
       <r>    -8.5201    18.3170   145.9640 </r>
       <r>    -8.3884    16.1780   148.0940 </r>
       <r>    -8.2568    15.6920   150.1601 </r>
       <r>    -8.1251    15.2056   152.1621 </r>
       <r>    -7.9934    29.1690   156.0026 </r>
       <r>    -7.8618    16.1729   158.1320 </r>
       <r>    -7.7301    17.3645   160.4183 </r>
       <r>    -7.5984     7.7754   161.4421 </r>
       <r>    -7.4668     2.5640   161.7796 </r>
       <r>    -7.3351    15.8668   163.8687 </r>
       <r>    -7.2035    32.4760   168.1447 </r>
       <r>    -7.0718    17.2499   170.4159 </r>
       <r>    -6.9401     3.6399   170.8951 </r>
       <r>    -6.8085    19.9093   173.5164 </r>
       <r>    -6.6768    12.0385   175.1015 </r>
       <r>    -6.5451    16.3450   177.2535 </r>
       <r>    -6.4135     7.2873   178.2130 </r>
       <r>    -6.2818    12.1814   179.8168 </r>
       <r>    -6.1501    15.2589   181.8259 </r>
       <r>    -6.0185    14.2319   183.6997 </r>
       <r>    -5.8868    19.1277   186.2182 </r>
       <r>    -5.7551     8.3783   187.3213 </r>
       <r>    -5.6235    13.9362   189.1562 </r>
       <r>    -5.4918     3.5769   189.6271 </r>
       <r>    -5.3602     7.4526   190.6084 </r>
       <r>    -5.2285     9.1747   191.8163 </r>
       <r>    -5.0968    10.8705   193.2476 </r>
       <r>    -4.9652    17.5232   195.5548 </r>
       <r>    -4.8335    16.9011   197.7800 </r>
       <r>    -4.7018     3.2083   198.2024 </r>
       <r>    -4.5702     0.1502   198.2222 </r>
       <r>    -4.4385     0.0000   198.2222 </r>
       <r>    -4.3068     2.3283   198.5288 </r>
       <r>    -4.1752    17.1514   200.7870 </r>
       <r>    -4.0435     5.8352   201.5553 </r>
       <r>    -3.9119     0.0020   201.5556 </r>
       <r>    -3.7802     0.3290   201.5989 </r>
       <r>    -3.6485     3.0209   201.9966 </r>
       <r>    -3.5169     0.1833   202.0208 </r>
       <r>    -3.3852     4.0440   202.5532 </r>
       <r>    -3.2535    12.3039   204.1732 </r>
       <r>    -3.1219    10.3751   205.5392 </r>
       <r>    -2.9902     3.5296   206.0039 </r>
       <r>    -2.8585     2.1864   206.2918 </r>
       <r>    -2.7269     9.4486   207.5358 </r>
       <r>    -2.5952     0.1497   207.5556 </r>
       <r>    -2.4635     0.0470   207.5617 </r>
       <r>    -2.3319     3.1177   207.9722 </r>
       <r>    -2.2002     2.7575   208.3353 </r>
       <r>    -2.0686     0.8290   208.4444 </r>
       <r>    -1.9369     0.0000   208.4444 </r>
       <r>    -1.8052     0.0000   208.4444 </r>
       <r>    -1.6736     0.1063   208.4584 </r>
       <r>    -1.5419     9.2709   209.6791 </r>
       <r>    -1.4102    11.6815   211.2171 </r>
       <r>    -1.2786     4.2579   211.7777 </r>
       <r>    -1.1469     0.0003   211.7778 </r>
       <r>    -1.0152     0.9302   211.9003 </r>
       <r>    -0.8836     9.5005   213.1511 </r>
       <r>    -0.7519    24.0904   216.3230 </r>
       <r>    -0.6203    18.5897   218.7706 </r>
       <r>    -0.4886     5.5951   219.5072 </r>
       <r>    -0.3569     0.3811   219.5574 </r>
       <r>    -0.2253     4.0698   220.0933 </r>
       <r>    -0.0936    11.2161   221.5700 </r>
       <r>     0.0381    10.6561   222.9731 </r>
       <r>     0.1697     1.1232   223.1209 </r>
       <r>     0.3014    15.2220   225.1251 </r>
       <r>     0.4331     8.2737   226.2145 </r>
       <r>     0.5647     3.3072   226.6499 </r>
       <r>     0.6964     9.5450   227.9067 </r>
       <r>     0.8281    18.0918   230.2887 </r>
       <r>     0.9597     6.1442   231.0977 </r>
       <r>     1.0914    10.4536   232.4740 </r>
       <r>     1.2230    15.8090   234.5555 </r>
       <r>     1.3547     7.4429   235.5355 </r>
       <r>     1.4864    15.0529   237.5174 </r>
       <r>     1.6180    22.9300   240.5365 </r>
       <r>     1.7497    14.9972   242.5111 </r>
       <r>     1.8814    28.2033   246.2244 </r>
       <r>     2.0130     8.6876   247.3683 </r>
       <r>     2.1447    15.2527   249.3765 </r>
       <r>     2.2764    25.8382   252.7784 </r>
       <r>     2.4080    29.2990   256.6361 </r>
       <r>     2.5397     8.7128   257.7832 </r>
       <r>     2.6714     6.0810   258.5839 </r>
       <r>     2.8030     8.4641   259.6983 </r>
       <r>     2.9347     5.8015   260.4621 </r>
       <r>     3.0663     8.9284   261.6377 </r>
       <r>     3.1980     2.7302   261.9972 </r>
       <r>     3.3297     5.0300   262.6594 </r>
       <r>     3.4613     0.0552   262.6667 </r>
       <r>     3.5930     2.6405   263.0144 </r>
       <r>     3.7247     4.1079   263.5552 </r>
       <r>     3.8563     0.0025   263.5556 </r>
       <r>     3.9880     0.0000   263.5556 </r>
       <r>     4.1197     0.2965   263.5946 </r>
       <r>     4.2513     3.0491   263.9960 </r>
       <r>     4.3830     0.0300   264.0000 </r>
       <r>     4.5146     0.0000   264.0000 </r>
       <r>     4.6463     0.0000   264.0000 </r>
       <r>     4.7780     0.0000   264.0000 </r>
       <r>     4.9096     0.0000   264.0000 </r>
       <r>     5.0413     0.0000   264.0000 </r>
       <r>     5.1730     0.0000   264.0000 </r>
       <r>     5.3046     0.0000   264.0000 </r>
       <r>     5.4363     0.0000   264.0000 </r>
       <r>     5.5680     0.0000   264.0000 </r>
       <r>     5.6996     0.0000   264.0000 </r>
       <r>     5.8313     0.0000   264.0000 </r>
       <r>     5.9630     0.0000   264.0000 </r>
      </set>
     </set>
    </array>
   </total>
  </dos>
 </calculation>
 <structure name="finalpos" >
  <crystal>
   <varray name="basis" >
    <v>      12.30000019       0.00000000       0.00000000 </v>
    <v>       6.15000080      10.65211222       0.00000000 </v>
    <v>       0.00000000       0.00000000      20.00000000 </v>
   </varray>
   <i name="volume">   2620.41964732 </i>
   <varray name="rec_basis" >
    <v>       0.08130081      -0.04693905       0.00000000 </v>
    <v>       0.00000000       0.09387809       0.00000000 </v>
    <v>       0.00000000       0.00000000       0.05000000 </v>
   </varray>
  </crystal>
  <varray name="positions" >
   <v>       0.00000000       0.00000000       0.41799748 </v>
   <v>       0.20000000       0.00000000       0.41799748 </v>
   <v>       0.40000000       0.00000000       0.41799748 </v>
   <v>       0.60000000       0.00000000       0.41799748 </v>
   <v>       0.80000000       0.00000000       0.41799748 </v>
   <v>       0.00000000       0.20000000       0.41799748 </v>
   <v>       0.20000000       0.20000000       0.41799748 </v>
   <v>       0.40000000       0.20000000       0.41799748 </v>
   <v>       0.60000000       0.20000000       0.41799748 </v>
   <v>       0.80000000       0.20000000       0.41799748 </v>
   <v>       0.00000000       0.40000000       0.41799748 </v>
   <v>       0.20000000       0.40000000       0.41799748 </v>
   <v>       0.40000000       0.40000000       0.41799748 </v>
   <v>       0.60000000       0.40000000       0.41799748 </v>
   <v>       0.80000000       0.40000000       0.41799748 </v>
   <v>       0.00000000       0.60000000       0.41799748 </v>
   <v>       0.20000000       0.60000000       0.41799748 </v>
   <v>       0.40000000       0.60000000       0.41799748 </v>
   <v>       0.60000000       0.60000000       0.41799748 </v>
   <v>       0.80000000       0.60000000       0.41799748 </v>
   <v>       0.00000000       0.80000000       0.41799748 </v>
   <v>       0.20000000       0.80000000       0.41799748 </v>
   <v>       0.40000000       0.80000000       0.41799748 </v>
   <v>       0.60000000       0.80000000       0.41799748 </v>
   <v>       0.80000000       0.80000000       0.41799748 </v>
   <v>       0.06666667       0.06666660       0.41800609 </v>
   <v>       0.26666667       0.06666660       0.41800609 </v>
   <v>       0.46666667       0.06666660       0.41800609 </v>
   <v>       0.66666667       0.06666660       0.41800609 </v>
   <v>       0.86666667       0.06666660       0.41800609 </v>
   <v>       0.06666667       0.26666660       0.41800609 </v>
   <v>       0.26666667       0.26666660       0.41800609 </v>
   <v>       0.46666667       0.26666660       0.41800609 </v>
   <v>       0.66666667       0.26666660       0.41800609 </v>
   <v>       0.86666667       0.26666660       0.41800609 </v>
   <v>       0.06666667       0.46666660       0.41800609 </v>
   <v>       0.26666667       0.46666660       0.41800609 </v>
   <v>       0.46666667       0.46666660       0.41800609 </v>
   <v>       0.66666667       0.46666660       0.41800609 </v>
   <v>       0.86666667       0.46666660       0.41800609 </v>
   <v>       0.06666667       0.66666660       0.41800609 </v>
   <v>       0.26666667       0.66666660       0.41800609 </v>
   <v>       0.46666667       0.66666660       0.41800609 </v>
   <v>       0.66585366       0.66666660       0.41800609 </v>
   <v>       0.86666667       0.66666660       0.41800609 </v>
   <v>       0.06666667       0.86666660       0.41800609 </v>
   <v>       0.26666667       0.86666660       0.41800609 </v>
   <v>       0.46666667       0.86666660       0.41800609 </v>
   <v>       0.66666667       0.86666660       0.41800609 </v>
   <v>       0.86666667       0.86666660       0.41800609 </v>
   <v>       0.40000000       0.40000000       0.46800609 </v>
  </varray>
  <varray name="velocities" >
   <v>       0.00000000       0.00000000       0.00000000 </v>
   <v>       0.00000000       0.00000000       0.00000000 </v>
   <v>       0.00000000       0.00000000       0.00000000 </v>
   <v>       0.00000000       0.00000000       0.00000000 </v>
   <v>       0.00000000       0.00000000       0.00000000 </v>
   <v>       0.00000000       0.00000000       0.00000000 </v>
   <v>       0.00000000       0.00000000       0.00000000 </v>
   <v>       0.00000000       0.00000000       0.00000000 </v>
   <v>       0.00000000       0.00000000       0.00000000 </v>
   <v>       0.00000000       0.00000000       0.00000000 </v>
   <v>       0.00000000       0.00000000       0.00000000 </v>
   <v>       0.00000000       0.00000000       0.00000000 </v>
   <v>       0.00000000       0.00000000       0.00000000 </v>
   <v>       0.00000000       0.00000000       0.00000000 </v>
   <v>       0.00000000       0.00000000       0.00000000 </v>
   <v>       0.00000000       0.00000000       0.00000000 </v>
   <v>       0.00000000       0.00000000       0.00000000 </v>
   <v>       0.00000000       0.00000000       0.00000000 </v>
   <v>       0.00000000       0.00000000       0.00000000 </v>
   <v>       0.00000000       0.00000000       0.00000000 </v>
   <v>       0.00000000       0.00000000       0.00000000 </v>
   <v>       0.00000000       0.00000000       0.00000000 </v>
   <v>       0.00000000       0.00000000       0.00000000 </v>
   <v>       0.00000000       0.00000000       0.00000000 </v>
   <v>       0.00000000       0.00000000       0.00000000 </v>
   <v>       0.00000000       0.00000000       0.00000000 </v>
   <v>       0.00000000       0.00000000       0.00000000 </v>
   <v>       0.00000000       0.00000000       0.00000000 </v>
   <v>       0.00000000       0.00000000       0.00000000 </v>
   <v>       0.00000000       0.00000000       0.00000000 </v>
   <v>       0.00000000       0.00000000       0.00000000 </v>
   <v>       0.00000000       0.00000000       0.00000000 </v>
   <v>       0.00000000       0.00000000       0.00000000 </v>
   <v>       0.00000000       0.00000000       0.00000000 </v>
   <v>       0.00000000       0.00000000       0.00000000 </v>
   <v>       0.00000000       0.00000000       0.00000000 </v>
   <v>       0.00000000       0.00000000       0.00000000 </v>
   <v>       0.00000000       0.00000000       0.00000000 </v>
   <v>       0.00000000       0.00000000       0.00000000 </v>
   <v>       0.00000000       0.00000000       0.00000000 </v>
   <v>       0.00000000       0.00000000       0.00000000 </v>
   <v>       0.00000000       0.00000000       0.00000000 </v>
   <v>       0.00000000       0.00000000       0.00000000 </v>
   <v>       0.00000000       0.00000000       0.00000000 </v>
   <v>       0.00000000       0.00000000       0.00000000 </v>
   <v>       0.00000000       0.00000000       0.00000000 </v>
   <v>       0.00000000       0.00000000       0.00000000 </v>
   <v>       0.00000000       0.00000000       0.00000000 </v>
   <v>       0.00000000       0.00000000       0.00000000 </v>
   <v>       0.00000000       0.00000000       0.00000000 </v>
   <v>       0.00000000       0.00000000       0.00000000 </v>
  </varray>
 </structure>
</modeling>
