<?xml version="1.0" encoding="ISO-8859-1"?>
<modeling>
 <generator>
  <i name="program" type="string">vasp </i>
  <i name="version" type="string">5.4.4.18Apr17-6-g9f103f2a35  </i>
  <i name="subversion" type="string">(build Aug 13 2022 23:40:43) complex            parallel </i>
  <i name="platform" type="string">LinuxIFC </i>
  <i name="date" type="string">2024 11 10 </i>
  <i name="time" type="string">04:25:23 </i>
 </generator>
 <incar>
  <i type="int" name="ISTART">     1</i>
  <i type="string" name="PREC">accurate</i>
  <i type="string" name="ALGO"> F          N:DAV,fine,slow</i>
  <i type="logical" name="ADDGRID"> T  </i>
  <i type="int" name="ISPIN">     1</i>
  <i type="int" name="ICHARG">     1</i>
  <i type="int" name="NELM">   300</i>
  <i type="int" name="IBRION">    -1</i>
  <i name="EDIFF">      0.00001000</i>
  <i name="EDIFFG">     -0.00100000</i>
  <i type="int" name="NSW">     1</i>
  <i type="int" name="ISIF">     2</i>
  <i name="ENCUT">    400.00000000</i>
  <i type="logical" name="LREAL"> F  </i>
  <i type="int" name="ISMEAR">     0</i>
  <i name="SIGMA">      0.05000000</i>
  <i type="logical" name="LWAVE"> F  </i>
  <i type="logical" name="LCHARG"> F  </i>
  <v type="int" name="KPOINT_BSE">    -1     0     0     0</v>
  <i type="int" name="NELM">   300</i>
 </incar>
 <structure name="primitive_cell" >
  <crystal>
   <varray name="basis" >
    <v>      12.30000019       0.00000000       0.00000000 </v>
    <v>       6.15000080      10.65211222       0.00000000 </v>
    <v>       0.00000000       0.00000000      20.00000000 </v>
   </varray>
   <i name="volume">   2620.41964732 </i>
   <varray name="rec_basis" >
    <v>       0.08130081      -0.04693905       0.00000000 </v>
    <v>       0.00000000       0.09387809       0.00000000 </v>
    <v>       0.00000000       0.00000000       0.05000000 </v>
   </varray>
  </crystal>
  <varray name="positions" >
   <v>       0.00000000       0.00000000       0.41799748 </v>
   <v>       0.06666667       0.06666660       0.41800609 </v>
   <v>      -0.13333333       0.06666660       0.41800609 </v>
   <v>       0.06666667      -0.13333340       0.41800609 </v>
   <v>      -0.20000000       0.20000000       0.41799748 </v>
   <v>       0.20000000      -0.20000000       0.41799748 </v>
   <v>       0.20000000       0.00000000       0.41799748 </v>
   <v>      -0.20000000       0.00000000       0.41799748 </v>
   <v>       0.00000000       0.20000000       0.41799748 </v>
   <v>       0.00000000      -0.20000000       0.41799748 </v>
   <v>      -0.13333333       0.26666660       0.41800609 </v>
   <v>       0.26666667      -0.13333340       0.41800609 </v>
   <v>      -0.13333333      -0.13333340       0.41800609 </v>
   <v>       0.06666667       0.26666660       0.41800609 </v>
   <v>      -0.33333333       0.26666660       0.41800609 </v>
   <v>       0.26666667       0.06666660       0.41800609 </v>
   <v>      -0.33333333       0.06666660       0.41800609 </v>
   <v>       0.26666667      -0.33333340       0.41800609 </v>
   <v>       0.06666667      -0.33333340       0.41800609 </v>
   <v>      -0.40000000       0.20000000       0.41799748 </v>
   <v>       0.40000000      -0.20000000       0.41799748 </v>
   <v>      -0.20000000       0.40000000       0.41799748 </v>
   <v>       0.20000000      -0.40000000       0.41799748 </v>
   <v>       0.20000000       0.20000000       0.41799748 </v>
   <v>      -0.20000000      -0.20000000       0.41799748 </v>
   <v>      -0.40000000       0.40000000       0.41799748 </v>
   <v>       0.40000000      -0.40000000       0.41799748 </v>
   <v>       0.40000000       0.00000000       0.41799748 </v>
   <v>      -0.40000000       0.00000000       0.41799748 </v>
   <v>       0.00000000       0.40000000       0.41799748 </v>
   <v>       0.00000000      -0.40000000       0.41799748 </v>
   <v>      -0.13333333       0.46666660       0.41800609 </v>
   <v>      -0.33333333       0.46666660       0.41800609 </v>
   <v>       0.46666667      -0.13333340       0.41800609 </v>
   <v>       0.46666667      -0.33333340       0.41800609 </v>
   <v>      -0.33333333      -0.13333340       0.41800609 </v>
   <v>      -0.13333333      -0.33333340       0.41800609 </v>
   <v>       0.26666667       0.26666660       0.41800609 </v>
   <v>       0.46666667       0.26666660       0.41800609 </v>
   <v>       0.26666667       0.46666660       0.41800609 </v>
   <v>       0.06666667       0.46666660       0.41800609 </v>
   <v>       0.46666667       0.46666660       0.41800609 </v>
   <v>       0.46666667       0.06666660       0.41800609 </v>
   <v>       0.40000000       0.40000000       0.41799748 </v>
   <v>      -0.40000000      -0.40000000       0.41799748 </v>
   <v>       0.40000000       0.20000000       0.41799748 </v>
   <v>      -0.40000000      -0.20000000       0.41799748 </v>
   <v>       0.20000000       0.40000000       0.41799748 </v>
   <v>      -0.20000000      -0.40000000       0.41799748 </v>
   <v>       0.40000000       0.40000000       0.46800609 </v>
   <v>      -0.33252032      -0.33333340       0.41800609 </v>
  </varray>
 </structure>
 <varray name="primitive_index" >
  <v type="int" >        1 </v>
  <v type="int" >       26 </v>
  <v type="int" >       30 </v>
  <v type="int" >       46 </v>
  <v type="int" >       10 </v>
  <v type="int" >       22 </v>
  <v type="int" >        2 </v>
  <v type="int" >        5 </v>
  <v type="int" >        6 </v>
  <v type="int" >       21 </v>
  <v type="int" >       35 </v>
  <v type="int" >       47 </v>
  <v type="int" >       50 </v>
  <v type="int" >       31 </v>
  <v type="int" >       34 </v>
  <v type="int" >       27 </v>
  <v type="int" >       29 </v>
  <v type="int" >       42 </v>
  <v type="int" >       41 </v>
  <v type="int" >        9 </v>
  <v type="int" >       23 </v>
  <v type="int" >       15 </v>
  <v type="int" >       17 </v>
  <v type="int" >        7 </v>
  <v type="int" >       25 </v>
  <v type="int" >       14 </v>
  <v type="int" >       18 </v>
  <v type="int" >        3 </v>
  <v type="int" >        4 </v>
  <v type="int" >       11 </v>
  <v type="int" >       16 </v>
  <v type="int" >       40 </v>
  <v type="int" >       39 </v>
  <v type="int" >       48 </v>
  <v type="int" >       43 </v>
  <v type="int" >       49 </v>
  <v type="int" >       45 </v>
  <v type="int" >       32 </v>
  <v type="int" >       33 </v>
  <v type="int" >       37 </v>
  <v type="int" >       36 </v>
  <v type="int" >       38 </v>
  <v type="int" >       28 </v>
  <v type="int" >       13 </v>
  <v type="int" >       19 </v>
  <v type="int" >        8 </v>
  <v type="int" >       24 </v>
  <v type="int" >       12 </v>
  <v type="int" >       20 </v>
  <v type="int" >       51 </v>
  <v type="int" >       44 </v>
 </varray>
 <kpoints>
  <generation param="Gamma">
   <v type="int" name="divisions">       3        3        1 </v>
   <v name="usershift">      0.00000000       0.00000000       0.00000000 </v>
   <v name="genvec1">      0.33333333      -0.00000000       0.00000000 </v>
   <v name="genvec2">      0.00000000       0.33333333       0.00000000 </v>
   <v name="genvec3">      0.00000000       0.00000000       1.00000000 </v>
   <v name="shift">      0.00000000       0.00000000       0.00000000 </v>
  </generation>
  <varray name="kpointlist" >
   <v>       0.00000000       0.00000000       0.00000000 </v>
   <v>       0.33333333       0.00000000       0.00000000 </v>
   <v>       0.00000000       0.33333333       0.00000000 </v>
   <v>       0.33333333       0.33333333       0.00000000 </v>
   <v>      -0.33333333       0.33333333       0.00000000 </v>
  </varray>
  <varray name="weights" >
   <v>       0.11111111 </v>
   <v>       0.22222222 </v>
   <v>       0.22222222 </v>
   <v>       0.22222222 </v>
   <v>       0.22222222 </v>
  </varray>
 </kpoints>
 <parameters>
  <separator name="general" >
   <i type="string" name="SYSTEM"></i>
   <i type="logical" name="LCOMPAT"> F  </i>
  </separator>
  <separator name="electronic" >
   <i type="string" name="PREC">accura</i>
   <i name="ENMAX">    400.00000000</i>
   <i name="ENAUG">    644.87300000</i>
   <i name="EDIFF">      0.00001000</i>
   <i type="int" name="IALGO">    68</i>
   <i type="int" name="IWAVPR">    10</i>
   <i type="int" name="NBANDS">   132</i>
   <i name="NELECT">    206.00000000</i>
   <i type="int" name="TURBO">     0</i>
   <i type="int" name="IRESTART">     0</i>
   <i type="int" name="NREBOOT">     0</i>
   <i type="int" name="NMIN">     0</i>
   <i name="EREF">      0.00000000</i>
   <separator name="electronic smearing" >
    <i type="int" name="ISMEAR">     0</i>
    <i name="SIGMA">      0.05000000</i>
    <i name="KSPACING">      0.50000000</i>
    <i type="logical" name="KGAMMA"> T  </i>
   </separator>
   <separator name="electronic projectors" >
    <i type="logical" name="LREAL"> F  </i>
    <v name="ROPT">      0.00000000      0.00000000</v>
    <i type="int" name="LMAXPAW">  -100</i>
    <i type="int" name="LMAXMIX">     2</i>
    <i type="logical" name="NLSPLINE"> F  </i>
   </separator>
   <separator name="electronic startup" >
    <i type="int" name="ISTART">     1</i>
    <i type="int" name="ICHARG">     1</i>
    <i type="int" name="INIWAV">     1</i>
   </separator>
   <separator name="electronic spin" >
    <i type="int" name="ISPIN">     1</i>
    <i type="logical" name="LNONCOLLINEAR"> F  </i>
    <v name="MAGMOM">      1.00000000      1.00000000      1.00000000      1.00000000      1.00000000      1.00000000      1.00000000      1.00000000      1.00000000      1.00000000      1.00000000      1.00000000      1.00000000      1.00000000      1.00000000      1.00000000      1.00000000      1.00000000      1.00000000      1.00000000
      1.00000000      1.00000000      1.00000000      1.00000000      1.00000000      1.00000000      1.00000000      1.00000000      1.00000000      1.00000000      1.00000000      1.00000000      1.00000000      1.00000000      1.00000000      1.00000000      1.00000000      1.00000000      1.00000000      1.00000000
      1.00000000      1.00000000      1.00000000      1.00000000      1.00000000      1.00000000      1.00000000      1.00000000      1.00000000      1.00000000      1.00000000</v>
    <i name="NUPDOWN">     -1.00000000</i>
    <i type="logical" name="LSORBIT"> F  </i>
    <v name="SAXIS">      0.00000000      0.00000000      1.00000000</v>
    <i type="logical" name="LSPIRAL"> F  </i>
    <v name="QSPIRAL">      0.00000000      0.00000000      0.00000000</v>
    <i type="logical" name="LZEROZ"> F  </i>
   </separator>
   <separator name="electronic exchange-correlation" >
    <i type="logical" name="LASPH"> F  </i>
    <i type="logical" name="LMETAGGA"> F  </i>
   </separator>
   <separator name="electronic convergence" >
    <i type="int" name="NELM">   300</i>
    <i type="int" name="NELMDL">     0</i>
    <i type="int" name="NELMIN">     2</i>
    <i name="ENINI">    400.00000000</i>
    <separator name="electronic convergence detail" >
     <i type="logical" name="LDIAG"> T  </i>
     <i type="logical" name="LSUBROT"> F  </i>
     <i name="WEIMIN">      0.00000000</i>
     <i name="EBREAK">      0.00000002</i>
     <i name="DEPER">      0.30000000</i>
     <i type="int" name="NRMM">     4</i>
     <i name="TIME">      0.40000000</i>
    </separator>
   </separator>
   <separator name="electronic mixer" >
    <i name="AMIX">      0.40000000</i>
    <i name="BMIX">      1.00000000</i>
    <i name="AMIN">      0.10000000</i>
    <i name="AMIX_MAG">      1.60000000</i>
    <i name="BMIX_MAG">      1.00000000</i>
    <separator name="electronic mixer details" >
     <i type="int" name="IMIX">     4</i>
     <i type="logical" name="MIXFIRST"> F  </i>
     <i type="int" name="MAXMIX">   -45</i>
     <i name="WC">    100.00000000</i>
     <i type="int" name="INIMIX">     1</i>
     <i type="int" name="MIXPRE">     1</i>
     <i type="int" name="MREMOVE">     5</i>
    </separator>
   </separator>
   <separator name="electronic dipolcorrection" >
    <i type="logical" name="LDIPOL"> F  </i>
    <i type="logical" name="LMONO"> F  </i>
    <i type="int" name="IDIPOL">     0</i>
    <i name="EPSILON">      1.00000000</i>
    <v name="DIPOL">   -100.00000000   -100.00000000   -100.00000000</v>
    <i name="EFIELD">      0.00000000</i>
   </separator>
  </separator>
  <separator name="grids" >
   <i type="int" name="NGX">    80</i>
   <i type="int" name="NGY">    80</i>
   <i type="int" name="NGZ">   140</i>
   <i type="int" name="NGXF">   160</i>
   <i type="int" name="NGYF">   160</i>
   <i type="int" name="NGZF">   280</i>
   <i type="logical" name="ADDGRID"> T  </i>
  </separator>
  <separator name="ionic" >
   <i type="int" name="NSW">     1</i>
   <i type="int" name="IBRION">    -1</i>
   <i type="int" name="MDALGO">     0</i>
   <i type="int" name="ISIF">     2</i>
   <i name="PSTRESS">      0.00000000</i>
   <i name="EDIFFG">     -0.00100000</i>
   <i type="int" name="NFREE">     0</i>
   <i name="POTIM">      0.50000000</i>
   <i name="SMASS">     -3.00000000</i>
   <i name="SCALEE">      1.00000000</i>
  </separator>
  <separator name="ionic md" >
   <i name="TEBEG">      0.00010000</i>
   <i name="TEEND">      0.00010000</i>
   <i type="int" name="NBLOCK">     1</i>
   <i type="int" name="KBLOCK">     1</i>
   <i type="int" name="NPACO">   256</i>
   <i name="APACO">     16.00000000</i>
  </separator>
  <separator name="symmetry" >
   <i type="int" name="ISYM">     2</i>
   <i name="SYMPREC">      0.00001000</i>
  </separator>
  <separator name="dos" >
   <i type="int" name="LORBIT">     0</i>
   <v name="RWIGS">     -1.00000000     -1.00000000</v>
   <i type="int" name="NEDOS">   301</i>
   <i name="EMIN">     10.00000000</i>
   <i name="EMAX">    -10.00000000</i>
   <i name="EFERMI">      0.00000000</i>
  </separator>
  <separator name="writing" >
   <i type="int" name="NWRITE">     2</i>
   <i type="logical" name="LWAVE"> F  </i>
   <i type="logical" name="LDOWNSAMPLE"> F  </i>
   <i type="logical" name="LCHARG"> F  </i>
   <i type="logical" name="LPARD"> F  </i>
   <i type="logical" name="LVTOT"> F  </i>
   <i type="logical" name="LVHAR"> F  </i>
   <i type="logical" name="LELF"> F  </i>
   <i type="logical" name="LOPTICS"> F  </i>
   <v name="STM">      0.00000000      0.00000000      0.00000000      0.00000000      0.00000000      0.00000000      0.00000000</v>
  </separator>
  <separator name="performance" >
   <i type="int" name="NPAR">     6</i>
   <i type="int" name="NSIM">     4</i>
   <i type="int" name="NBLK">    -1</i>
   <i type="logical" name="LPLANE"> T  </i>
   <i type="logical" name="LSCALAPACK"> T  </i>
   <i type="logical" name="LSCAAWARE"> F  </i>
   <i type="logical" name="LSCALU"> F  </i>
   <i type="logical" name="LASYNC"> F  </i>
   <i type="logical" name="LORBITALREAL"> F  </i>
  </separator>
  <separator name="miscellaneous" >
   <i type="int" name="IDIOT">     3</i>
   <i type="int" name="ISPECIAL">     0</i>
   <i type="logical" name="LMUSIC"> F  </i>
   <v name="POMASS">     12.01100000     16.00000000</v>
   <v name="DARWINR">      0.00000000      0.00000000</v>
   <v name="DARWINV">      1.00000000      1.00000000</v>
   <i type="logical" name="LCORR"> T  </i>
  </separator>
  <i type="logical" name="GGA_COMPAT"> T  </i>
  <i type="logical" name="LBERRY"> F  </i>
  <i type="int" name="ICORELEVEL">     0</i>
  <i type="logical" name="LDAU"> F  </i>
  <i type="int" name="I_CONSTRAINED_M">     0</i>
  <separator name="electronic exchange-correlation" >
   <i type="string" name="GGA">--</i>
   <i type="int" name="VOSKOWN">     0</i>
   <i type="logical" name="LHFCALC"> F  </i>
   <i type="string" name="PRECFOCK"></i>
   <i type="logical" name="LSYMGRAD"> F  </i>
   <i type="logical" name="LHFONE"> F  </i>
   <i type="logical" name="LRHFCALC"> F  </i>
   <i type="logical" name="LTHOMAS"> F  </i>
   <i type="logical" name="LMODELHF"> F  </i>
   <i name="ENCUT4O">     -1.00000000</i>
   <i type="int" name="EXXOEP">     0</i>
   <i type="int" name="FOURORBIT">     0</i>
   <i name="AEXX">      0.00000000</i>
   <i name="HFALPHA">      0.00000000</i>
   <i name="MCALPHA">      0.00000000</i>
   <i name="ALDAX">      1.00000000</i>
   <i name="AGGAX">      1.00000000</i>
   <i name="ALDAC">      1.00000000</i>
   <i name="AGGAC">      1.00000000</i>
   <i type="int" name="NKREDX">     1</i>
   <i type="int" name="NKREDY">     1</i>
   <i type="int" name="NKREDZ">     1</i>
   <i type="logical" name="SHIFTRED"> F  </i>
   <i type="logical" name="ODDONLY"> F  </i>
   <i type="logical" name="EVENONLY"> F  </i>
   <i type="int" name="LMAXFOCK">     0</i>
   <i type="int" name="NMAXFOCKAE">     0</i>
   <i type="logical" name="LFOCKAEDFT"> F  </i>
   <i name="HFSCREEN">      0.00000000</i>
   <i name="HFSCREENC">      0.00000000</i>
   <i type="int" name="NBANDSGWLOW">     0</i>
  </separator>
  <separator name="vdW DFT" >
   <i type="logical" name="LUSE_VDW"> F  </i>
   <i name="Zab_VDW">     -0.84910000</i>
   <i name="PARAM1">      0.12340000</i>
   <i name="PARAM2">      1.00000000</i>
   <i name="PARAM3">      0.00000000</i>
  </separator>
  <separator name="model GW" >
   <i type="int" name="MODEL_GW">     0</i>
   <i name="MODEL_EPS0">     30.82846644</i>
   <i name="MODEL_ALPHA">      1.00000000</i>
  </separator>
  <separator name="linear response parameters" >
   <i type="logical" name="LEPSILON"> F  </i>
   <i type="logical" name="LRPA"> F  </i>
   <i type="logical" name="LNABLA"> F  </i>
   <i type="logical" name="LVEL"> F  </i>
   <i type="int" name="KINTER">     0</i>
   <i name="CSHIFT">      0.10000000</i>
   <i name="OMEGAMAX">     -1.00000000</i>
   <i name="DEG_THRESHOLD">      0.00200000</i>
   <i name="RTIME">     -0.10000000</i>
   <i name="WPLASMAI">      0.00000000</i>
   <v name="DFIELD">      0.00000000      0.00000000      0.00000000</v>
   <v name="WPLASMA">      0.00000000      0.00000000      0.00000000      0.00000000      0.00000000      0.00000000      0.00000000      0.00000000      0.00000000</v>
  </separator>
  <separator name="orbital magnetization" >
   <i type="logical" name="NUCIND"> F  </i>
   <v name="MAGPOS">      0.00000000      0.00000000      0.00000000</v>
   <i type="logical" name="LNICSALL"> T  </i>
   <i type="logical" name="ORBITALMAG"> F  </i>
   <i type="logical" name="LMAGBLOCH"> F  </i>
   <i type="logical" name="LCHIMAG"> F  </i>
   <i type="logical" name="LGAUGE"> T  </i>
   <i type="int" name="MAGATOM">     0</i>
   <v name="MAGDIPOL">      0.00000000      0.00000000      0.00000000</v>
   <v name="AVECCONST">      0.00000000      0.00000000      0.00000000</v>
  </separator>
  <separator name="response functions" >
   <i type="logical" name="LADDER"> F  </i>
   <i type="logical" name="LRPAFORCE"> F  </i>
   <i type="logical" name="LFXC"> F  </i>
   <i type="logical" name="LHARTREE"> T  </i>
   <i type="int" name="IBSE">     0</i>
   <v type="int" name="KPOINT">    -1     0     0     0</v>
   <i type="logical" name="LTCTE"> F  </i>
   <i type="logical" name="LTETE"> F  </i>
   <i type="logical" name="LTRIPLET"> F  </i>
   <i type="logical" name="LFXCEPS"> F  </i>
   <i type="logical" name="LFXHEG"> F  </i>
   <i type="int" name="NATURALO">     2</i>
   <i type="logical" name="L2ORDER"> F  </i>
   <i type="logical" name="LMP2LT"> F  </i>
   <i type="logical" name="LUSEW"> F  </i>
   <i name="ENCUTGW">     -2.00000000</i>
   <i name="ENCUTGWSOFT">     -2.00000000</i>
   <i name="ENCUTLF">     -1.00000000</i>
   <i type="int" name="LMAXMP2">    -1</i>
   <i name="SCISSOR">      0.00000000</i>
   <i type="int" name="NOMEGA">     0</i>
   <i type="int" name="NOMEGAR">     0</i>
   <i type="int" name="NBANDSGW">    -1</i>
   <i type="int" name="NBANDSO">    -1</i>
   <i type="int" name="NBANDSV">    -1</i>
   <i type="int" name="NELM">   300</i>
   <i type="int" name="NELMHF">     1</i>
   <i type="int" name="DIM">     3</i>
   <i type="int" name="ANTIRES">     0</i>
   <i name="OMEGAMAX">    -30.00000000</i>
   <i name="OMEGAMIN">    -30.00000000</i>
   <i name="OMEGATL">   -200.00000000</i>
   <i type="int" name="OMEGAGRID">   140</i>
   <i name="CSHIFT">     -0.10000000</i>
   <i type="logical" name="SELFENERGY"> F  </i>
   <i type="logical" name="LSPECTRAL"> F  </i>
   <i type="logical" name="LSPECTRALGW"> F  </i>
   <i type="logical" name="LSINGLES"> F  </i>
   <i type="logical" name="LFERMIGW"> F  </i>
   <i type="logical" name="ODDONLYGW"> F  </i>
   <i type="logical" name="EVENONLYGW"> F  </i>
   <i type="int" name="NKREDLFX">     1</i>
   <i type="int" name="NKREDLFY">     1</i>
   <i type="int" name="NKREDLFZ">     1</i>
   <i type="int" name="MAXMEM">  2800</i>
   <i type="int" name="TELESCOPE">     0</i>
   <i type="int" name="TAUPAR">     1</i>
   <i type="int" name="OMEGAPAR">    -1</i>
   <i name="LAMBDA">      1.00000000</i>
  </separator>
  <separator name="External order field" >
   <i name="OFIELD_KAPPA">      0.00000000</i>
   <v name="OFIELD_K">      0.00000000      0.00000000      0.00000000</v>
   <i name="OFIELD_Q6_NEAR">      0.00000000</i>
   <i name="OFIELD_Q6_FAR">      0.00000000</i>
   <i name="OFIELD_A">      0.00000000</i>
  </separator>
 </parameters>
 <atominfo>
  <atoms>      51 </atoms>
  <types>       2 </types>
  <array name="atoms" >
   <dimension dim="1">ion</dimension>
   <field type="string">element</field>
   <field type="int">atomtype</field>
   <set>
    <rc><c>C </c><c>   1</c></rc>
    <rc><c>C </c><c>   1</c></rc>
    <rc><c>C </c><c>   1</c></rc>
    <rc><c>C </c><c>   1</c></rc>
    <rc><c>C </c><c>   1</c></rc>
    <rc><c>C </c><c>   1</c></rc>
    <rc><c>C </c><c>   1</c></rc>
    <rc><c>C </c><c>   1</c></rc>
    <rc><c>C </c><c>   1</c></rc>
    <rc><c>C </c><c>   1</c></rc>
    <rc><c>C </c><c>   1</c></rc>
    <rc><c>C </c><c>   1</c></rc>
    <rc><c>C </c><c>   1</c></rc>
    <rc><c>C </c><c>   1</c></rc>
    <rc><c>C </c><c>   1</c></rc>
    <rc><c>C </c><c>   1</c></rc>
    <rc><c>C </c><c>   1</c></rc>
    <rc><c>C </c><c>   1</c></rc>
    <rc><c>C </c><c>   1</c></rc>
    <rc><c>C </c><c>   1</c></rc>
    <rc><c>C </c><c>   1</c></rc>
    <rc><c>C </c><c>   1</c></rc>
    <rc><c>C </c><c>   1</c></rc>
    <rc><c>C </c><c>   1</c></rc>
    <rc><c>C </c><c>   1</c></rc>
    <rc><c>C </c><c>   1</c></rc>
    <rc><c>C </c><c>   1</c></rc>
    <rc><c>C </c><c>   1</c></rc>
    <rc><c>C </c><c>   1</c></rc>
    <rc><c>C </c><c>   1</c></rc>
    <rc><c>C </c><c>   1</c></rc>
    <rc><c>C </c><c>   1</c></rc>
    <rc><c>C </c><c>   1</c></rc>
    <rc><c>C </c><c>   1</c></rc>
    <rc><c>C </c><c>   1</c></rc>
    <rc><c>C </c><c>   1</c></rc>
    <rc><c>C </c><c>   1</c></rc>
    <rc><c>C </c><c>   1</c></rc>
    <rc><c>C </c><c>   1</c></rc>
    <rc><c>C </c><c>   1</c></rc>
    <rc><c>C </c><c>   1</c></rc>
    <rc><c>C </c><c>   1</c></rc>
    <rc><c>C </c><c>   1</c></rc>
    <rc><c>C </c><c>   1</c></rc>
    <rc><c>C </c><c>   1</c></rc>
    <rc><c>C </c><c>   1</c></rc>
    <rc><c>C </c><c>   1</c></rc>
    <rc><c>C </c><c>   1</c></rc>
    <rc><c>C </c><c>   1</c></rc>
    <rc><c>C </c><c>   1</c></rc>
    <rc><c>O </c><c>   2</c></rc>
   </set>
  </array>
  <array name="atomtypes" >
   <dimension dim="1">type</dimension>
   <field type="int">atomspertype</field>
   <field type="string">element</field>
   <field>mass</field>
   <field>valence</field>
   <field type="string">pseudopotential</field>
   <set>
    <rc><c>  50</c><c>C </c><c>     12.01100000</c><c>      4.00000000</c><c>  PAW_PBE C 08Apr2002                   </c></rc>
    <rc><c>   1</c><c>O </c><c>     16.00000000</c><c>      6.00000000</c><c>  PAW_PBE O 08Apr2002                   </c></rc>
   </set>
  </array>
 </atominfo>
 <structure name="initialpos" >
  <crystal>
   <varray name="basis" >
    <v>      12.30000019       0.00000000       0.00000000 </v>
    <v>       6.15000080      10.65211222       0.00000000 </v>
    <v>       0.00000000       0.00000000      20.00000000 </v>
   </varray>
   <i name="volume">   2620.41964732 </i>
   <varray name="rec_basis" >
    <v>       0.08130081      -0.04693905       0.00000000 </v>
    <v>       0.00000000       0.09387809       0.00000000 </v>
    <v>       0.00000000       0.00000000       0.05000000 </v>
   </varray>
  </crystal>
  <varray name="positions" >
   <v>       0.00000000       0.00000000       0.41799748 </v>
   <v>       0.20000000       0.00000000       0.41799748 </v>
   <v>       0.40000000       0.00000000       0.41799748 </v>
   <v>       0.60000000       0.00000000       0.41799748 </v>
   <v>       0.80000000       0.00000000       0.41799748 </v>
   <v>       0.00000000       0.20000000       0.41799748 </v>
   <v>       0.20000000       0.20000000       0.41799748 </v>
   <v>       0.40000000       0.20000000       0.41799748 </v>
   <v>       0.60000000       0.20000000       0.41799748 </v>
   <v>       0.80000000       0.20000000       0.41799748 </v>
   <v>       0.00000000       0.40000000       0.41799748 </v>
   <v>       0.20000000       0.40000000       0.41799748 </v>
   <v>       0.40000000       0.40000000       0.41799748 </v>
   <v>       0.60000000       0.40000000       0.41799748 </v>
   <v>       0.80000000       0.40000000       0.41799748 </v>
   <v>       0.00000000       0.60000000       0.41799748 </v>
   <v>       0.20000000       0.60000000       0.41799748 </v>
   <v>       0.40000000       0.60000000       0.41799748 </v>
   <v>       0.60000000       0.60000000       0.41799748 </v>
   <v>       0.80000000       0.60000000       0.41799748 </v>
   <v>       0.00000000       0.80000000       0.41799748 </v>
   <v>       0.20000000       0.80000000       0.41799748 </v>
   <v>       0.40000000       0.80000000       0.41799748 </v>
   <v>       0.60000000       0.80000000       0.41799748 </v>
   <v>       0.80000000       0.80000000       0.41799748 </v>
   <v>       0.06666667       0.06666660       0.41800609 </v>
   <v>       0.26666667       0.06666660       0.41800609 </v>
   <v>       0.46666667       0.06666660       0.41800609 </v>
   <v>       0.66666667       0.06666660       0.41800609 </v>
   <v>       0.86666667       0.06666660       0.41800609 </v>
   <v>       0.06666667       0.26666660       0.41800609 </v>
   <v>       0.26666667       0.26666660       0.41800609 </v>
   <v>       0.46666667       0.26666660       0.41800609 </v>
   <v>       0.66666667       0.26666660       0.41800609 </v>
   <v>       0.86666667       0.26666660       0.41800609 </v>
   <v>       0.06666667       0.46666660       0.41800609 </v>
   <v>       0.26666667       0.46666660       0.41800609 </v>
   <v>       0.46666667       0.46666660       0.41800609 </v>
   <v>       0.66666667       0.46666660       0.41800609 </v>
   <v>       0.86666667       0.46666660       0.41800609 </v>
   <v>       0.06666667       0.66666660       0.41800609 </v>
   <v>       0.26666667       0.66666660       0.41800609 </v>
   <v>       0.46666667       0.66666660       0.41800609 </v>
   <v>       0.66747968       0.66666660       0.41800609 </v>
   <v>       0.86666667       0.66666660       0.41800609 </v>
   <v>       0.06666667       0.86666660       0.41800609 </v>
   <v>       0.26666667       0.86666660       0.41800609 </v>
   <v>       0.46666667       0.86666660       0.41800609 </v>
   <v>       0.66666667       0.86666660       0.41800609 </v>
   <v>       0.86666667       0.86666660       0.41800609 </v>
   <v>       0.40000000       0.40000000       0.46800609 </v>
  </varray>
  <varray name="velocities" >
   <v>       0.00000000       0.00000000       0.00000000 </v>
   <v>       0.00000000       0.00000000       0.00000000 </v>
   <v>       0.00000000       0.00000000       0.00000000 </v>
   <v>       0.00000000       0.00000000       0.00000000 </v>
   <v>       0.00000000       0.00000000       0.00000000 </v>
   <v>       0.00000000       0.00000000       0.00000000 </v>
   <v>       0.00000000       0.00000000       0.00000000 </v>
   <v>       0.00000000       0.00000000       0.00000000 </v>
   <v>       0.00000000       0.00000000       0.00000000 </v>
   <v>       0.00000000       0.00000000       0.00000000 </v>
   <v>       0.00000000       0.00000000       0.00000000 </v>
   <v>       0.00000000       0.00000000       0.00000000 </v>
   <v>       0.00000000       0.00000000       0.00000000 </v>
   <v>       0.00000000       0.00000000       0.00000000 </v>
   <v>       0.00000000       0.00000000       0.00000000 </v>
   <v>       0.00000000       0.00000000       0.00000000 </v>
   <v>       0.00000000       0.00000000       0.00000000 </v>
   <v>       0.00000000       0.00000000       0.00000000 </v>
   <v>       0.00000000       0.00000000       0.00000000 </v>
   <v>       0.00000000       0.00000000       0.00000000 </v>
   <v>       0.00000000       0.00000000       0.00000000 </v>
   <v>       0.00000000       0.00000000       0.00000000 </v>
   <v>       0.00000000       0.00000000       0.00000000 </v>
   <v>       0.00000000       0.00000000       0.00000000 </v>
   <v>       0.00000000       0.00000000       0.00000000 </v>
   <v>       0.00000000       0.00000000       0.00000000 </v>
   <v>       0.00000000       0.00000000       0.00000000 </v>
   <v>       0.00000000       0.00000000       0.00000000 </v>
   <v>       0.00000000       0.00000000       0.00000000 </v>
   <v>       0.00000000       0.00000000       0.00000000 </v>
   <v>       0.00000000       0.00000000       0.00000000 </v>
   <v>       0.00000000       0.00000000       0.00000000 </v>
   <v>       0.00000000       0.00000000       0.00000000 </v>
   <v>       0.00000000       0.00000000       0.00000000 </v>
   <v>       0.00000000       0.00000000       0.00000000 </v>
   <v>       0.00000000       0.00000000       0.00000000 </v>
   <v>       0.00000000       0.00000000       0.00000000 </v>
   <v>       0.00000000       0.00000000       0.00000000 </v>
   <v>       0.00000000       0.00000000       0.00000000 </v>
   <v>       0.00000000       0.00000000       0.00000000 </v>
   <v>       0.00000000       0.00000000       0.00000000 </v>
   <v>       0.00000000       0.00000000       0.00000000 </v>
   <v>       0.00000000       0.00000000       0.00000000 </v>
   <v>       0.00000000       0.00000000       0.00000000 </v>
   <v>       0.00000000       0.00000000       0.00000000 </v>
   <v>       0.00000000       0.00000000       0.00000000 </v>
   <v>       0.00000000       0.00000000       0.00000000 </v>
   <v>       0.00000000       0.00000000       0.00000000 </v>
   <v>       0.00000000       0.00000000       0.00000000 </v>
   <v>       0.00000000       0.00000000       0.00000000 </v>
   <v>       0.00000000       0.00000000       0.00000000 </v>
  </varray>
 </structure>
 <calculation>
  <scstep>
   <time name="dav">    4.13    4.13</time>
   <time name="total">    4.72    4.73</time>
   <energy>
    <i name="alphaZ">     82.54348252 </i>
    <i name="ewald">  34516.51346872 </i>
    <i name="hartreedc"> -41034.81693619 </i>
    <i name="XCdc">    721.38007507 </i>
    <i name="pawpsdc">  22781.19595426 </i>
    <i name="pawaedc"> -22817.52509957 </i>
    <i name="eentropy">     -0.00048364 </i>
    <i name="bandstr">  -2491.20762398 </i>
    <i name="atom">   7788.62438962 </i>
    <i name="e_fr_energy">   -453.29277319 </i>
    <i name="e_wo_entrp">   -453.29228956 </i>
    <i name="e_0_energy">   -453.29253137 </i>
   </energy>
  </scstep>
  <scstep>
   <time name="diag">    0.89    0.89</time>
   <time name="diis">    3.78    3.78</time>
   <time name="orth">    0.04    0.04</time>
   <time name="total">    5.29    5.29</time>
   <energy>
    <i name="e_fr_energy">   -454.28027330 </i>
    <i name="e_wo_entrp">   -454.28017818 </i>
    <i name="e_0_energy">   -454.28022574 </i>
   </energy>
  </scstep>
  <scstep>
   <time name="diag">    0.89    0.89</time>
   <time name="diis">    4.15    4.15</time>
   <time name="orth">    0.04    0.04</time>
   <time name="total">    5.66    5.67</time>
   <energy>
    <i name="e_fr_energy">   -454.33257996 </i>
    <i name="e_wo_entrp">   -454.33245688 </i>
    <i name="e_0_energy">   -454.33251842 </i>
   </energy>
  </scstep>
  <scstep>
   <time name="diag">    0.89    0.89</time>
   <time name="diis">    4.10    4.11</time>
   <time name="orth">    0.04    0.04</time>
   <time name="total">    5.62    5.62</time>
   <energy>
    <i name="e_fr_energy">   -454.33643678 </i>
    <i name="e_wo_entrp">   -454.33632996 </i>
    <i name="e_0_energy">   -454.33638337 </i>
   </energy>
  </scstep>
  <scstep>
   <time name="diag">    0.89    0.89</time>
   <time name="diis">    4.02    4.02</time>
   <time name="orth">    0.04    0.04</time>
   <time name="total">    5.53    5.53</time>
   <energy>
    <i name="e_fr_energy">   -454.33653917 </i>
    <i name="e_wo_entrp">   -454.33642850 </i>
    <i name="e_0_energy">   -454.33648383 </i>
   </energy>
  </scstep>
  <scstep>
   <time name="diag">    0.89    0.89</time>
   <time name="diis">    4.05    4.05</time>
   <time name="orth">    0.05    0.05</time>
   <time name="total">    5.57    5.57</time>
   <energy>
    <i name="e_fr_energy">   -454.33656732 </i>
    <i name="e_wo_entrp">   -454.33645531 </i>
    <i name="e_0_energy">   -454.33651131 </i>
   </energy>
  </scstep>
  <scstep>
   <time name="diag">    0.90    0.90</time>
   <time name="diis">    2.90    2.91</time>
   <time name="orth">    0.04    0.04</time>
   <time name="total">    4.02    4.02</time>
   <energy>
    <i name="alphaZ">     82.54348252 </i>
    <i name="ewald">  34516.51346872 </i>
    <i name="hartreedc"> -41034.91536162 </i>
    <i name="XCdc">    721.38636400 </i>
    <i name="pawpsdc">  22776.92711933 </i>
    <i name="pawaedc"> -22813.25975757 </i>
    <i name="eentropy">     -0.00011310 </i>
    <i name="bandstr">  -2492.15616543 </i>
    <i name="atom">   7788.62438962 </i>
    <i name="e_fr_energy">   -454.33657353 </i>
    <i name="e_wo_entrp">   -454.33646043 </i>
    <i name="e_0_energy">   -454.33651698 </i>
   </energy>
  </scstep>
  <structure>
   <crystal>
    <varray name="basis" >
     <v>      12.30000019       0.00000000       0.00000000 </v>
     <v>       6.15000080      10.65211222       0.00000000 </v>
     <v>       0.00000000       0.00000000      20.00000000 </v>
    </varray>
    <i name="volume">   2620.41964732 </i>
    <varray name="rec_basis" >
     <v>       0.08130081      -0.04693905       0.00000000 </v>
     <v>       0.00000000       0.09387809       0.00000000 </v>
     <v>       0.00000000       0.00000000       0.05000000 </v>
    </varray>
   </crystal>
   <varray name="positions" >
    <v>       0.00000000       0.00000000       0.41799748 </v>
    <v>       0.20000000       0.00000000       0.41799748 </v>
    <v>       0.40000000       0.00000000       0.41799748 </v>
    <v>       0.60000000       0.00000000       0.41799748 </v>
    <v>       0.80000000       0.00000000       0.41799748 </v>
    <v>       0.00000000       0.20000000       0.41799748 </v>
    <v>       0.20000000       0.20000000       0.41799748 </v>
    <v>       0.40000000       0.20000000       0.41799748 </v>
    <v>       0.60000000       0.20000000       0.41799748 </v>
    <v>       0.80000000       0.20000000       0.41799748 </v>
    <v>       0.00000000       0.40000000       0.41799748 </v>
    <v>       0.20000000       0.40000000       0.41799748 </v>
    <v>       0.40000000       0.40000000       0.41799748 </v>
    <v>       0.60000000       0.40000000       0.41799748 </v>
    <v>       0.80000000       0.40000000       0.41799748 </v>
    <v>       0.00000000       0.60000000       0.41799748 </v>
    <v>       0.20000000       0.60000000       0.41799748 </v>
    <v>       0.40000000       0.60000000       0.41799748 </v>
    <v>       0.60000000       0.60000000       0.41799748 </v>
    <v>       0.80000000       0.60000000       0.41799748 </v>
    <v>       0.00000000       0.80000000       0.41799748 </v>
    <v>       0.20000000       0.80000000       0.41799748 </v>
    <v>       0.40000000       0.80000000       0.41799748 </v>
    <v>       0.60000000       0.80000000       0.41799748 </v>
    <v>       0.80000000       0.80000000       0.41799748 </v>
    <v>       0.06666667       0.06666660       0.41800609 </v>
    <v>       0.26666667       0.06666660       0.41800609 </v>
    <v>       0.46666667       0.06666660       0.41800609 </v>
    <v>       0.66666667       0.06666660       0.41800609 </v>
    <v>       0.86666667       0.06666660       0.41800609 </v>
    <v>       0.06666667       0.26666660       0.41800609 </v>
    <v>       0.26666667       0.26666660       0.41800609 </v>
    <v>       0.46666667       0.26666660       0.41800609 </v>
    <v>       0.66666667       0.26666660       0.41800609 </v>
    <v>       0.86666667       0.26666660       0.41800609 </v>
    <v>       0.06666667       0.46666660       0.41800609 </v>
    <v>       0.26666667       0.46666660       0.41800609 </v>
    <v>       0.46666667       0.46666660       0.41800609 </v>
    <v>       0.66666667       0.46666660       0.41800609 </v>
    <v>       0.86666667       0.46666660       0.41800609 </v>
    <v>       0.06666667       0.66666660       0.41800609 </v>
    <v>       0.26666667       0.66666660       0.41800609 </v>
    <v>       0.46666667       0.66666660       0.41800609 </v>
    <v>       0.66747968       0.66666660       0.41800609 </v>
    <v>       0.86666667       0.66666660       0.41800609 </v>
    <v>       0.06666667       0.86666660       0.41800609 </v>
    <v>       0.26666667       0.86666660       0.41800609 </v>
    <v>       0.46666667       0.86666660       0.41800609 </v>
    <v>       0.66666667       0.86666660       0.41800609 </v>
    <v>       0.86666667       0.86666660       0.41800609 </v>
    <v>       0.40000000       0.40000000       0.46800609 </v>
   </varray>
  </structure>
  <varray name="forces" >
   <v>      -0.04767239      -0.02811761       0.00934673 </v>
   <v>       0.04656301      -0.02462569       0.00940923 </v>
   <v>      -0.15284745       0.01233688      -0.02598543 </v>
   <v>       0.00507128      -0.20556702      -0.02702277 </v>
   <v>       0.16005502       0.01233247      -0.02622254 </v>
   <v>      -0.00003070       0.05810743       0.00937252 </v>
   <v>       0.42904229       0.24766968       0.00011037 </v>
   <v>       0.09289274      -0.20306252       0.16506342 </v>
   <v>      -0.09086331      -0.20708215       0.16549306 </v>
   <v>      -0.42981603       0.24702632       0.00006585 </v>
   <v>      -0.07584688      -0.14022459      -0.02646609 </v>
   <v>      -0.13670664       0.18477841       0.16618595 </v>
   <v>       0.01361124       0.00494787     -48.15984899 </v>
   <v>       0.11964773       0.18380481       0.16313525 </v>
   <v>       0.08414025      -0.14346762      -0.02552634 </v>
   <v>      -0.18251063       0.11266102      -0.02703653 </v>
   <v>      -0.22373408       0.02368128       0.16540027 </v>
   <v>       0.22319792       0.00965140       0.16340876 </v>
   <v>       0.39742788       0.16777589      -0.02694028 </v>
   <v>       0.22671032      -0.08341662       0.01788605 </v>
   <v>       0.08945257       0.13082570      -0.02601672 </v>
   <v>      -0.00152201      -0.49435133       0.00007235 </v>
   <v>      -0.09437243       0.14072055      -0.02566486 </v>
   <v>       0.09262213       0.00637476       0.01790750 </v>
   <v>       0.00912039      -0.00528657       0.01783038 </v>
   <v>       0.00140683      -0.00259306      -0.00606825 </v>
   <v>       0.09565099      -0.21822356       0.01018610 </v>
   <v>       0.19508776       0.24915230       0.25688496 </v>
   <v>      -0.19563196       0.25334546       0.25687069 </v>
   <v>      -0.09742489      -0.21719010       0.01013629 </v>
   <v>      -0.14109867       0.19037584       0.01010577 </v>
   <v>      -0.44086352      -0.25636697      -0.35550174 </v>
   <v>      -0.00307804      -5.07245960      -4.34530104 </v>
   <v>       0.44064281      -0.25543115      -0.35570777 </v>
   <v>       0.14156959       0.19149557       0.00995552 </v>
   <v>       0.32056215       0.04029893       0.25688653 </v>
   <v>      -4.39028245       2.53503587      -4.34333136 </v>
   <v>       4.40518568       2.54207463      -4.35806262 </v>
   <v>      -0.32028267       0.07836307       0.25752987 </v>
   <v>      -0.00661607       0.04587640      -0.02199551 </v>
   <v>       0.12099539      -0.29383979       0.25701347 </v>
   <v>      -0.00000072       0.50934570      -0.35580246 </v>
   <v>      -0.07156841      -0.29457765       0.25707464 </v>
   <v>      -0.71253135      -0.03999880      -0.02659367 </v>
   <v>       0.13138341      -0.04456188      -0.02641395 </v>
   <v>      -0.23514854       0.02498745       0.01013211 </v>
   <v>       0.24034695       0.02142431       0.01000870 </v>
   <v>       0.06432772      -0.07069992      -0.02182398 </v>
   <v>      -0.00783711       0.12473000      -0.02646380 </v>
   <v>      -0.06676754      -0.03919605      -0.02203020 </v>
   <v>      -0.02165954      -0.00885973      59.98835459 </v>
  </varray>
  <varray name="stress" >
   <v>       9.51078890      -0.06957644      -0.01334369 </v>
   <v>      -0.06957644       9.51117156      -0.00539036 </v>
   <v>      -0.01334368      -0.00539036      31.89211484 </v>
  </varray>
  <energy>
   <i name="e_fr_energy">   -454.33657353 </i>
   <i name="e_wo_entrp">   -454.33651698 </i>
   <i name="e_0_energy">     -0.00011310 </i>
  </energy>
  <time name="totalsc">   42.55   42.60</time>
  <eigenvalues>
   <array>
    <dimension dim="1">band</dimension>
    <dimension dim="2">kpoint</dimension>
    <dimension dim="3">spin</dimension>
    <field>eigene</field>
    <field>occ</field>
    <set>
     <set comment="spin 1">
      <set comment="kpoint 1">
       <r>  -31.7374    1.0000 </r>
       <r>  -22.2711    1.0000 </r>
       <r>  -21.5024    1.0000 </r>
       <r>  -21.5009    1.0000 </r>
       <r>  -21.3982    1.0000 </r>
       <r>  -21.3945    1.0000 </r>
       <r>  -21.3908    1.0000 </r>
       <r>  -20.8762    1.0000 </r>
       <r>  -19.8773    1.0000 </r>
       <r>  -19.8726    1.0000 </r>
       <r>  -19.5490    1.0000 </r>
       <r>  -19.5443    1.0000 </r>
       <r>  -19.5385    1.0000 </r>
       <r>  -19.1966    1.0000 </r>
       <r>  -18.9032    1.0000 </r>
       <r>  -18.9003    1.0000 </r>
       <r>  -18.6492    1.0000 </r>
       <r>  -18.6432    1.0000 </r>
       <r>  -18.6367    1.0000 </r>
       <r>  -17.8814    1.0000 </r>
       <r>  -17.0221    1.0000 </r>
       <r>  -17.0207    1.0000 </r>
       <r>  -16.4774    1.0000 </r>
       <r>  -16.4582    1.0000 </r>
       <r>  -16.4549    1.0000 </r>
       <r>  -16.0501    1.0000 </r>
       <r>  -16.0018    1.0000 </r>
       <r>  -15.9910    1.0000 </r>
       <r>  -15.4993    1.0000 </r>
       <r>  -15.4970    1.0000 </r>
       <r>  -15.4914    1.0000 </r>
       <r>  -15.0900    1.0000 </r>
       <r>  -14.6310    1.0000 </r>
       <r>  -14.6289    1.0000 </r>
       <r>  -14.1528    1.0000 </r>
       <r>  -14.1470    1.0000 </r>
       <r>  -14.1367    1.0000 </r>
       <r>  -13.9654    1.0000 </r>
       <r>  -12.9931    1.0000 </r>
       <r>  -12.9898    1.0000 </r>
       <r>  -12.0257    1.0000 </r>
       <r>  -11.7659    1.0000 </r>
       <r>  -11.7634    1.0000 </r>
       <r>  -11.7613    1.0000 </r>
       <r>  -11.6953    1.0000 </r>
       <r>  -11.6884    1.0000 </r>
       <r>  -11.6549    1.0000 </r>
       <r>  -11.6517    1.0000 </r>
       <r>  -11.6483    1.0000 </r>
       <r>  -11.6454    1.0000 </r>
       <r>  -10.8030    1.0000 </r>
       <r>  -10.8017    1.0000 </r>
       <r>  -10.4257    1.0000 </r>
       <r>  -10.3345    1.0000 </r>
       <r>  -10.2895    1.0000 </r>
       <r>  -10.2850    1.0000 </r>
       <r>  -10.2721    1.0000 </r>
       <r>  -10.0777    1.0000 </r>
       <r>   -9.6871    1.0000 </r>
       <r>   -9.6758    1.0000 </r>
       <r>   -9.3254    1.0000 </r>
       <r>   -9.3250    1.0000 </r>
       <r>   -9.3026    1.0000 </r>
       <r>   -9.2800    1.0000 </r>
       <r>   -9.2746    1.0000 </r>
       <r>   -9.0456    1.0000 </r>
       <r>   -9.0104    1.0000 </r>
       <r>   -9.0050    1.0000 </r>
       <r>   -8.9547    1.0000 </r>
       <r>   -8.9406    1.0000 </r>
       <r>   -8.9389    1.0000 </r>
       <r>   -8.9376    1.0000 </r>
       <r>   -8.9241    1.0000 </r>
       <r>   -8.9189    1.0000 </r>
       <r>   -8.8897    1.0000 </r>
       <r>   -8.4369    1.0000 </r>
       <r>   -7.8031    1.0000 </r>
       <r>   -7.7975    1.0000 </r>
       <r>   -7.3323    1.0000 </r>
       <r>   -7.3158    1.0000 </r>
       <r>   -7.3096    1.0000 </r>
       <r>   -7.3017    1.0000 </r>
       <r>   -7.2999    1.0000 </r>
       <r>   -7.2940    1.0000 </r>
       <r>   -7.1608    1.0000 </r>
       <r>   -7.1556    1.0000 </r>
       <r>   -7.1547    1.0000 </r>
       <r>   -6.7548    1.0000 </r>
       <r>   -6.5085    1.0000 </r>
       <r>   -6.5074    1.0000 </r>
       <r>   -6.2694    1.0000 </r>
       <r>   -6.2485    1.0000 </r>
       <r>   -6.2434    1.0000 </r>
       <r>   -5.9293    1.0000 </r>
       <r>   -5.9155    1.0000 </r>
       <r>   -5.1930    1.0000 </r>
       <r>   -4.7667    1.0000 </r>
       <r>   -4.7631    1.0000 </r>
       <r>   -4.2703    1.0000 </r>
       <r>   -4.2664    1.0000 </r>
       <r>   -4.2626    1.0000 </r>
       <r>   -3.2152    1.0000 </r>
       <r>   -3.2126    1.0000 </r>
       <r>   -2.9160    0.0021 </r>
       <r>   -1.4617    0.0000 </r>
       <r>   -1.4607    0.0000 </r>
       <r>   -1.4569    0.0000 </r>
       <r>   -0.9928    0.0000 </r>
       <r>   -0.9845    0.0000 </r>
       <r>   -0.5455    0.0000 </r>
       <r>    0.4161    0.0000 </r>
       <r>    0.4206    0.0000 </r>
       <r>    0.4293    0.0000 </r>
       <r>    0.5615    0.0000 </r>
       <r>    0.8426    0.0000 </r>
       <r>    0.8440    0.0000 </r>
       <r>    1.2932    0.0000 </r>
       <r>    1.3403    0.0000 </r>
       <r>    1.6816    0.0000 </r>
       <r>    1.8001    0.0000 </r>
       <r>    1.8008    0.0000 </r>
       <r>    1.8028    0.0000 </r>
       <r>    1.8253    0.0000 </r>
       <r>    1.8293    0.0000 </r>
       <r>    2.0321    0.0000 </r>
       <r>    2.1733    0.0000 </r>
       <r>    2.1771    0.0000 </r>
       <r>    2.1797    0.0000 </r>
       <r>    2.3451    0.0000 </r>
       <r>    2.3509    0.0000 </r>
       <r>    2.6119    0.0000 </r>
       <r>    2.6453    0.0000 </r>
      </set>
      <set comment="kpoint 2">
       <r>  -31.7375    1.0000 </r>
       <r>  -22.1893    1.0000 </r>
       <r>  -21.8683    1.0000 </r>
       <r>  -21.6598    1.0000 </r>
       <r>  -21.4560    1.0000 </r>
       <r>  -21.0337    1.0000 </r>
       <r>  -20.8975    1.0000 </r>
       <r>  -20.7292    1.0000 </r>
       <r>  -20.4186    1.0000 </r>
       <r>  -20.1609    1.0000 </r>
       <r>  -19.7879    1.0000 </r>
       <r>  -19.6957    1.0000 </r>
       <r>  -19.3273    1.0000 </r>
       <r>  -19.2437    1.0000 </r>
       <r>  -19.0611    1.0000 </r>
       <r>  -18.5918    1.0000 </r>
       <r>  -18.4593    1.0000 </r>
       <r>  -18.1218    1.0000 </r>
       <r>  -18.0619    1.0000 </r>
       <r>  -17.5905    1.0000 </r>
       <r>  -17.4977    1.0000 </r>
       <r>  -17.3017    1.0000 </r>
       <r>  -17.2745    1.0000 </r>
       <r>  -16.8504    1.0000 </r>
       <r>  -16.6569    1.0000 </r>
       <r>  -16.1771    1.0000 </r>
       <r>  -15.9768    1.0000 </r>
       <r>  -15.8501    1.0000 </r>
       <r>  -15.2967    1.0000 </r>
       <r>  -15.1677    1.0000 </r>
       <r>  -15.1329    1.0000 </r>
       <r>  -14.8838    1.0000 </r>
       <r>  -14.7831    1.0000 </r>
       <r>  -14.4784    1.0000 </r>
       <r>  -14.4551    1.0000 </r>
       <r>  -13.7689    1.0000 </r>
       <r>  -13.7579    1.0000 </r>
       <r>  -13.1949    1.0000 </r>
       <r>  -13.0895    1.0000 </r>
       <r>  -12.9341    1.0000 </r>
       <r>  -12.9066    1.0000 </r>
       <r>  -12.5846    1.0000 </r>
       <r>  -12.5505    1.0000 </r>
       <r>  -12.3878    1.0000 </r>
       <r>  -12.0226    1.0000 </r>
       <r>  -11.6609    1.0000 </r>
       <r>  -11.4457    1.0000 </r>
       <r>  -11.2965    1.0000 </r>
       <r>  -11.1207    1.0000 </r>
       <r>  -10.9175    1.0000 </r>
       <r>  -10.8454    1.0000 </r>
       <r>  -10.5841    1.0000 </r>
       <r>  -10.5329    1.0000 </r>
       <r>  -10.2858    1.0000 </r>
       <r>  -10.2373    1.0000 </r>
       <r>  -10.1588    1.0000 </r>
       <r>  -10.0491    1.0000 </r>
       <r>   -9.8528    1.0000 </r>
       <r>   -9.8206    1.0000 </r>
       <r>   -9.6530    1.0000 </r>
       <r>   -9.6083    1.0000 </r>
       <r>   -9.5592    1.0000 </r>
       <r>   -9.5286    1.0000 </r>
       <r>   -9.3699    1.0000 </r>
       <r>   -9.3411    1.0000 </r>
       <r>   -9.2599    1.0000 </r>
       <r>   -9.1768    1.0000 </r>
       <r>   -9.1010    1.0000 </r>
       <r>   -9.0823    1.0000 </r>
       <r>   -8.8642    1.0000 </r>
       <r>   -8.7119    1.0000 </r>
       <r>   -8.6645    1.0000 </r>
       <r>   -8.5054    1.0000 </r>
       <r>   -8.4010    1.0000 </r>
       <r>   -8.2856    1.0000 </r>
       <r>   -8.1317    1.0000 </r>
       <r>   -8.0962    1.0000 </r>
       <r>   -8.0647    1.0000 </r>
       <r>   -7.9668    1.0000 </r>
       <r>   -7.8069    1.0000 </r>
       <r>   -7.6187    1.0000 </r>
       <r>   -7.3606    1.0000 </r>
       <r>   -7.3343    1.0000 </r>
       <r>   -7.2731    1.0000 </r>
       <r>   -7.1977    1.0000 </r>
       <r>   -6.9214    1.0000 </r>
       <r>   -6.8734    1.0000 </r>
       <r>   -6.6884    1.0000 </r>
       <r>   -6.5917    1.0000 </r>
       <r>   -6.3537    1.0000 </r>
       <r>   -6.1819    1.0000 </r>
       <r>   -6.0702    1.0000 </r>
       <r>   -5.9235    1.0000 </r>
       <r>   -5.7399    1.0000 </r>
       <r>   -5.6387    1.0000 </r>
       <r>   -5.3209    1.0000 </r>
       <r>   -5.1170    1.0000 </r>
       <r>   -4.9691    1.0000 </r>
       <r>   -4.9206    1.0000 </r>
       <r>   -4.2696    1.0000 </r>
       <r>   -4.1686    1.0000 </r>
       <r>   -3.3357    1.0000 </r>
       <r>   -3.1375    0.9997 </r>
       <r>   -2.8028    0.0000 </r>
       <r>   -1.5891    0.0000 </r>
       <r>   -1.4233    0.0000 </r>
       <r>   -0.8444    0.0000 </r>
       <r>   -0.8185    0.0000 </r>
       <r>   -0.7072    0.0000 </r>
       <r>   -0.6660    0.0000 </r>
       <r>   -0.1305    0.0000 </r>
       <r>   -0.0027    0.0000 </r>
       <r>    0.2953    0.0000 </r>
       <r>    0.7038    0.0000 </r>
       <r>    0.7257    0.0000 </r>
       <r>    1.0995    0.0000 </r>
       <r>    1.1758    0.0000 </r>
       <r>    1.3654    0.0000 </r>
       <r>    1.4624    0.0000 </r>
       <r>    1.5375    0.0000 </r>
       <r>    1.5707    0.0000 </r>
       <r>    1.6370    0.0000 </r>
       <r>    1.8307    0.0000 </r>
       <r>    1.9119    0.0000 </r>
       <r>    2.0405    0.0000 </r>
       <r>    2.2216    0.0000 </r>
       <r>    2.2715    0.0000 </r>
       <r>    2.3276    0.0000 </r>
       <r>    2.3401    0.0000 </r>
       <r>    2.3957    0.0000 </r>
       <r>    2.4573    0.0000 </r>
       <r>    2.7960    0.0000 </r>
      </set>
      <set comment="kpoint 3">
       <r>  -31.7375    1.0000 </r>
       <r>  -22.1890    1.0000 </r>
       <r>  -21.8697    1.0000 </r>
       <r>  -21.6591    1.0000 </r>
       <r>  -21.4556    1.0000 </r>
       <r>  -21.0325    1.0000 </r>
       <r>  -20.8999    1.0000 </r>
       <r>  -20.7277    1.0000 </r>
       <r>  -20.4171    1.0000 </r>
       <r>  -20.1631    1.0000 </r>
       <r>  -19.7891    1.0000 </r>
       <r>  -19.6966    1.0000 </r>
       <r>  -19.3273    1.0000 </r>
       <r>  -19.2410    1.0000 </r>
       <r>  -19.0606    1.0000 </r>
       <r>  -18.5912    1.0000 </r>
       <r>  -18.4603    1.0000 </r>
       <r>  -18.1186    1.0000 </r>
       <r>  -18.0642    1.0000 </r>
       <r>  -17.5928    1.0000 </r>
       <r>  -17.4968    1.0000 </r>
       <r>  -17.3043    1.0000 </r>
       <r>  -17.2728    1.0000 </r>
       <r>  -16.8508    1.0000 </r>
       <r>  -16.6581    1.0000 </r>
       <r>  -16.1750    1.0000 </r>
       <r>  -15.9778    1.0000 </r>
       <r>  -15.8464    1.0000 </r>
       <r>  -15.2963    1.0000 </r>
       <r>  -15.1668    1.0000 </r>
       <r>  -15.1351    1.0000 </r>
       <r>  -14.8842    1.0000 </r>
       <r>  -14.7836    1.0000 </r>
       <r>  -14.4816    1.0000 </r>
       <r>  -14.4535    1.0000 </r>
       <r>  -13.7664    1.0000 </r>
       <r>  -13.7609    1.0000 </r>
       <r>  -13.1950    1.0000 </r>
       <r>  -13.0880    1.0000 </r>
       <r>  -12.9330    1.0000 </r>
       <r>  -12.9067    1.0000 </r>
       <r>  -12.5868    1.0000 </r>
       <r>  -12.5476    1.0000 </r>
       <r>  -12.3901    1.0000 </r>
       <r>  -12.0212    1.0000 </r>
       <r>  -11.6621    1.0000 </r>
       <r>  -11.4453    1.0000 </r>
       <r>  -11.2961    1.0000 </r>
       <r>  -11.1212    1.0000 </r>
       <r>  -10.9151    1.0000 </r>
       <r>  -10.8464    1.0000 </r>
       <r>  -10.5854    1.0000 </r>
       <r>  -10.5336    1.0000 </r>
       <r>  -10.2858    1.0000 </r>
       <r>  -10.2370    1.0000 </r>
       <r>  -10.1574    1.0000 </r>
       <r>  -10.0495    1.0000 </r>
       <r>   -9.8538    1.0000 </r>
       <r>   -9.8221    1.0000 </r>
       <r>   -9.6532    1.0000 </r>
       <r>   -9.6076    1.0000 </r>
       <r>   -9.5592    1.0000 </r>
       <r>   -9.5274    1.0000 </r>
       <r>   -9.3698    1.0000 </r>
       <r>   -9.3403    1.0000 </r>
       <r>   -9.2599    1.0000 </r>
       <r>   -9.1777    1.0000 </r>
       <r>   -9.0979    1.0000 </r>
       <r>   -9.0816    1.0000 </r>
       <r>   -8.8635    1.0000 </r>
       <r>   -8.7132    1.0000 </r>
       <r>   -8.6668    1.0000 </r>
       <r>   -8.5047    1.0000 </r>
       <r>   -8.4036    1.0000 </r>
       <r>   -8.2858    1.0000 </r>
       <r>   -8.1313    1.0000 </r>
       <r>   -8.0979    1.0000 </r>
       <r>   -8.0644    1.0000 </r>
       <r>   -7.9687    1.0000 </r>
       <r>   -7.8085    1.0000 </r>
       <r>   -7.6191    1.0000 </r>
       <r>   -7.3617    1.0000 </r>
       <r>   -7.3329    1.0000 </r>
       <r>   -7.2654    1.0000 </r>
       <r>   -7.1966    1.0000 </r>
       <r>   -6.9216    1.0000 </r>
       <r>   -6.8722    1.0000 </r>
       <r>   -6.6923    1.0000 </r>
       <r>   -6.5904    1.0000 </r>
       <r>   -6.3485    1.0000 </r>
       <r>   -6.1850    1.0000 </r>
       <r>   -6.0720    1.0000 </r>
       <r>   -5.9248    1.0000 </r>
       <r>   -5.7374    1.0000 </r>
       <r>   -5.6391    1.0000 </r>
       <r>   -5.3246    1.0000 </r>
       <r>   -5.1148    1.0000 </r>
       <r>   -4.9721    1.0000 </r>
       <r>   -4.9199    1.0000 </r>
       <r>   -4.2691    1.0000 </r>
       <r>   -4.1680    1.0000 </r>
       <r>   -3.3360    1.0000 </r>
       <r>   -3.1358    0.9996 </r>
       <r>   -2.8027    0.0000 </r>
       <r>   -1.5906    0.0000 </r>
       <r>   -1.4246    0.0000 </r>
       <r>   -0.8435    0.0000 </r>
       <r>   -0.8209    0.0000 </r>
       <r>   -0.7023    0.0000 </r>
       <r>   -0.6668    0.0000 </r>
       <r>   -0.1278    0.0000 </r>
       <r>   -0.0057    0.0000 </r>
       <r>    0.2957    0.0000 </r>
       <r>    0.7039    0.0000 </r>
       <r>    0.7267    0.0000 </r>
       <r>    1.0988    0.0000 </r>
       <r>    1.1748    0.0000 </r>
       <r>    1.3640    0.0000 </r>
       <r>    1.4632    0.0000 </r>
       <r>    1.5379    0.0000 </r>
       <r>    1.5713    0.0000 </r>
       <r>    1.6376    0.0000 </r>
       <r>    1.8316    0.0000 </r>
       <r>    1.9127    0.0000 </r>
       <r>    2.0382    0.0000 </r>
       <r>    2.2303    0.0000 </r>
       <r>    2.2749    0.0000 </r>
       <r>    2.3357    0.0000 </r>
       <r>    2.4267    0.0000 </r>
       <r>    2.7407    0.0000 </r>
       <r>    3.2546    0.0000 </r>
       <r>    3.6170    0.0000 </r>
      </set>
      <set comment="kpoint 4">
       <r>  -31.7375    1.0000 </r>
       <r>  -22.1888    1.0000 </r>
       <r>  -21.8698    1.0000 </r>
       <r>  -21.6612    1.0000 </r>
       <r>  -21.4521    1.0000 </r>
       <r>  -21.0348    1.0000 </r>
       <r>  -20.8980    1.0000 </r>
       <r>  -20.7290    1.0000 </r>
       <r>  -20.4202    1.0000 </r>
       <r>  -20.1597    1.0000 </r>
       <r>  -19.7859    1.0000 </r>
       <r>  -19.6986    1.0000 </r>
       <r>  -19.3248    1.0000 </r>
       <r>  -19.2436    1.0000 </r>
       <r>  -19.0624    1.0000 </r>
       <r>  -18.5929    1.0000 </r>
       <r>  -18.4581    1.0000 </r>
       <r>  -18.1225    1.0000 </r>
       <r>  -18.0596    1.0000 </r>
       <r>  -17.5922    1.0000 </r>
       <r>  -17.4977    1.0000 </r>
       <r>  -17.3013    1.0000 </r>
       <r>  -17.2770    1.0000 </r>
       <r>  -16.8502    1.0000 </r>
       <r>  -16.6576    1.0000 </r>
       <r>  -16.1686    1.0000 </r>
       <r>  -15.9775    1.0000 </r>
       <r>  -15.8520    1.0000 </r>
       <r>  -15.2995    1.0000 </r>
       <r>  -15.1690    1.0000 </r>
       <r>  -15.1346    1.0000 </r>
       <r>  -14.8835    1.0000 </r>
       <r>  -14.7834    1.0000 </r>
       <r>  -14.4759    1.0000 </r>
       <r>  -14.4567    1.0000 </r>
       <r>  -13.7661    1.0000 </r>
       <r>  -13.7594    1.0000 </r>
       <r>  -13.1958    1.0000 </r>
       <r>  -13.0917    1.0000 </r>
       <r>  -12.9343    1.0000 </r>
       <r>  -12.9022    1.0000 </r>
       <r>  -12.5853    1.0000 </r>
       <r>  -12.5448    1.0000 </r>
       <r>  -12.3909    1.0000 </r>
       <r>  -12.0235    1.0000 </r>
       <r>  -11.6617    1.0000 </r>
       <r>  -11.4450    1.0000 </r>
       <r>  -11.2985    1.0000 </r>
       <r>  -11.1222    1.0000 </r>
       <r>  -10.9135    1.0000 </r>
       <r>  -10.8530    1.0000 </r>
       <r>  -10.5819    1.0000 </r>
       <r>  -10.5323    1.0000 </r>
       <r>  -10.2839    1.0000 </r>
       <r>  -10.2369    1.0000 </r>
       <r>  -10.1627    1.0000 </r>
       <r>  -10.0469    1.0000 </r>
       <r>   -9.8538    1.0000 </r>
       <r>   -9.8226    1.0000 </r>
       <r>   -9.6541    1.0000 </r>
       <r>   -9.6067    1.0000 </r>
       <r>   -9.5522    1.0000 </r>
       <r>   -9.5272    1.0000 </r>
       <r>   -9.3704    1.0000 </r>
       <r>   -9.3389    1.0000 </r>
       <r>   -9.2576    1.0000 </r>
       <r>   -9.1758    1.0000 </r>
       <r>   -9.1001    1.0000 </r>
       <r>   -9.0793    1.0000 </r>
       <r>   -8.8669    1.0000 </r>
       <r>   -8.7203    1.0000 </r>
       <r>   -8.6649    1.0000 </r>
       <r>   -8.5054    1.0000 </r>
       <r>   -8.4047    1.0000 </r>
       <r>   -8.2869    1.0000 </r>
       <r>   -8.1342    1.0000 </r>
       <r>   -8.0946    1.0000 </r>
       <r>   -8.0670    1.0000 </r>
       <r>   -7.9755    1.0000 </r>
       <r>   -7.8062    1.0000 </r>
       <r>   -7.6142    1.0000 </r>
       <r>   -7.3598    1.0000 </r>
       <r>   -7.3356    1.0000 </r>
       <r>   -7.2577    1.0000 </r>
       <r>   -7.1972    1.0000 </r>
       <r>   -6.9177    1.0000 </r>
       <r>   -6.8735    1.0000 </r>
       <r>   -6.6950    1.0000 </r>
       <r>   -6.5901    1.0000 </r>
       <r>   -6.3432    1.0000 </r>
       <r>   -6.1904    1.0000 </r>
       <r>   -6.0752    1.0000 </r>
       <r>   -5.9226    1.0000 </r>
       <r>   -5.7397    1.0000 </r>
       <r>   -5.6381    1.0000 </r>
       <r>   -5.3246    1.0000 </r>
       <r>   -5.1153    1.0000 </r>
       <r>   -4.9719    1.0000 </r>
       <r>   -4.9229    1.0000 </r>
       <r>   -4.2649    1.0000 </r>
       <r>   -4.1682    1.0000 </r>
       <r>   -3.3333    1.0000 </r>
       <r>   -3.1373    0.9997 </r>
       <r>   -2.8046    0.0000 </r>
       <r>   -1.5909    0.0000 </r>
       <r>   -1.4277    0.0000 </r>
       <r>   -0.8397    0.0000 </r>
       <r>   -0.8194    0.0000 </r>
       <r>   -0.7032    0.0000 </r>
       <r>   -0.6680    0.0000 </r>
       <r>   -0.1270    0.0000 </r>
       <r>   -0.0067    0.0000 </r>
       <r>    0.2968    0.0000 </r>
       <r>    0.7042    0.0000 </r>
       <r>    0.7268    0.0000 </r>
       <r>    1.1006    0.0000 </r>
       <r>    1.1774    0.0000 </r>
       <r>    1.3661    0.0000 </r>
       <r>    1.4644    0.0000 </r>
       <r>    1.5596    0.0000 </r>
       <r>    1.5752    0.0000 </r>
       <r>    1.7487    0.0000 </r>
       <r>    1.8320    0.0000 </r>
       <r>    2.1799    0.0000 </r>
       <r>    2.3353    0.0000 </r>
       <r>    2.3966    0.0000 </r>
       <r>    2.6135    0.0000 </r>
       <r>    2.7879    0.0000 </r>
       <r>    2.8460    0.0000 </r>
       <r>    3.2035    0.0000 </r>
       <r>    3.5944    0.0000 </r>
       <r>    4.1840    0.0000 </r>
      </set>
      <set comment="kpoint 5">
       <r>  -31.7375    1.0000 </r>
       <r>  -22.0803    1.0000 </r>
       <r>  -22.0082    1.0000 </r>
       <r>  -21.8003    1.0000 </r>
       <r>  -21.1698    1.0000 </r>
       <r>  -21.1528    1.0000 </r>
       <r>  -20.8676    1.0000 </r>
       <r>  -20.4123    1.0000 </r>
       <r>  -20.3372    1.0000 </r>
       <r>  -20.1721    1.0000 </r>
       <r>  -20.1489    1.0000 </r>
       <r>  -20.1464    1.0000 </r>
       <r>  -19.5644    1.0000 </r>
       <r>  -18.8254    1.0000 </r>
       <r>  -18.6752    1.0000 </r>
       <r>  -18.3740    1.0000 </r>
       <r>  -18.3504    1.0000 </r>
       <r>  -18.3325    1.0000 </r>
       <r>  -17.9301    1.0000 </r>
       <r>  -17.8006    1.0000 </r>
       <r>  -17.6030    1.0000 </r>
       <r>  -17.2613    1.0000 </r>
       <r>  -17.1530    1.0000 </r>
       <r>  -17.1210    1.0000 </r>
       <r>  -16.5420    1.0000 </r>
       <r>  -16.4367    1.0000 </r>
       <r>  -16.2830    1.0000 </r>
       <r>  -15.8079    1.0000 </r>
       <r>  -15.6282    1.0000 </r>
       <r>  -15.1745    1.0000 </r>
       <r>  -14.9680    1.0000 </r>
       <r>  -14.6538    1.0000 </r>
       <r>  -13.9600    1.0000 </r>
       <r>  -13.9405    1.0000 </r>
       <r>  -13.9248    1.0000 </r>
       <r>  -13.8738    1.0000 </r>
       <r>  -13.8624    1.0000 </r>
       <r>  -13.7912    1.0000 </r>
       <r>  -13.6745    1.0000 </r>
       <r>  -13.4960    1.0000 </r>
       <r>  -13.0373    1.0000 </r>
       <r>  -12.4719    1.0000 </r>
       <r>  -12.2546    1.0000 </r>
       <r>  -12.0685    1.0000 </r>
       <r>  -11.8260    1.0000 </r>
       <r>  -11.7727    1.0000 </r>
       <r>  -11.5623    1.0000 </r>
       <r>  -11.5424    1.0000 </r>
       <r>  -11.5238    1.0000 </r>
       <r>  -10.9288    1.0000 </r>
       <r>  -10.8170    1.0000 </r>
       <r>  -10.5290    1.0000 </r>
       <r>  -10.2086    1.0000 </r>
       <r>  -10.2023    1.0000 </r>
       <r>  -10.1948    1.0000 </r>
       <r>  -10.0947    1.0000 </r>
       <r>  -10.0504    1.0000 </r>
       <r>  -10.0227    1.0000 </r>
       <r>   -9.8989    1.0000 </r>
       <r>   -9.7523    1.0000 </r>
       <r>   -9.7498    1.0000 </r>
       <r>   -9.5640    1.0000 </r>
       <r>   -9.4423    1.0000 </r>
       <r>   -9.4068    1.0000 </r>
       <r>   -9.1998    1.0000 </r>
       <r>   -9.0456    1.0000 </r>
       <r>   -9.0322    1.0000 </r>
       <r>   -8.9022    1.0000 </r>
       <r>   -8.8842    1.0000 </r>
       <r>   -8.6899    1.0000 </r>
       <r>   -8.6418    1.0000 </r>
       <r>   -8.6310    1.0000 </r>
       <r>   -8.6196    1.0000 </r>
       <r>   -8.5842    1.0000 </r>
       <r>   -8.3757    1.0000 </r>
       <r>   -8.2542    1.0000 </r>
       <r>   -8.1590    1.0000 </r>
       <r>   -8.0352    1.0000 </r>
       <r>   -7.9834    1.0000 </r>
       <r>   -7.8796    1.0000 </r>
       <r>   -7.8588    1.0000 </r>
       <r>   -7.8549    1.0000 </r>
       <r>   -7.2236    1.0000 </r>
       <r>   -7.1860    1.0000 </r>
       <r>   -7.1255    1.0000 </r>
       <r>   -6.8829    1.0000 </r>
       <r>   -6.7199    1.0000 </r>
       <r>   -6.6133    1.0000 </r>
       <r>   -6.4625    1.0000 </r>
       <r>   -6.2654    1.0000 </r>
       <r>   -6.1041    1.0000 </r>
       <r>   -5.9163    1.0000 </r>
       <r>   -5.9130    1.0000 </r>
       <r>   -5.8945    1.0000 </r>
       <r>   -5.4513    1.0000 </r>
       <r>   -5.4263    1.0000 </r>
       <r>   -5.1241    1.0000 </r>
       <r>   -5.0135    1.0000 </r>
       <r>   -4.9815    1.0000 </r>
       <r>   -4.9556    1.0000 </r>
       <r>   -3.7302    1.0000 </r>
       <r>   -3.4586    1.0000 </r>
       <r>   -3.2783    1.0000 </r>
       <r>   -2.3881    0.0000 </r>
       <r>   -2.2232    0.0000 </r>
       <r>   -0.9310    0.0000 </r>
       <r>   -0.8820    0.0000 </r>
       <r>   -0.8669    0.0000 </r>
       <r>   -0.5362    0.0000 </r>
       <r>   -0.2636    0.0000 </r>
       <r>   -0.2112    0.0000 </r>
       <r>    0.2498    0.0000 </r>
       <r>    0.2561    0.0000 </r>
       <r>    0.2636    0.0000 </r>
       <r>    0.6035    0.0000 </r>
       <r>    0.7914    0.0000 </r>
       <r>    0.9470    0.0000 </r>
       <r>    0.9724    0.0000 </r>
       <r>    1.0627    0.0000 </r>
       <r>    1.7348    0.0000 </r>
       <r>    1.7433    0.0000 </r>
       <r>    1.7649    0.0000 </r>
       <r>    1.8279    0.0000 </r>
       <r>    2.1169    0.0000 </r>
       <r>    2.1211    0.0000 </r>
       <r>    2.1319    0.0000 </r>
       <r>    2.2454    0.0000 </r>
       <r>    2.2481    0.0000 </r>
       <r>    2.3611    0.0000 </r>
       <r>    2.9979    0.0000 </r>
       <r>    3.0116    0.0000 </r>
       <r>    3.0339    0.0000 </r>
      </set>
     </set>
    </set>
   </array>
  </eigenvalues>
  <separator name="orbital magnetization" >
   <v name="MAGDIPOLOUT">      0.00000000      0.00000000      0.00000000</v>
  </separator>
  <dos>
   <i name="efermi">     -3.01708146 </i>
   <total>
    <array>
     <dimension dim="1">gridpoints</dimension>
     <dimension dim="2">spin</dimension>
     <field>energy</field>
     <field>total</field>
     <field>integrated</field>
     <set>
      <set comment="spin 1">
       <r>   -33.5336     0.0000     0.0000 </r>
       <r>   -33.4019     0.0000     0.0000 </r>
       <r>   -33.2702     0.0000     0.0000 </r>
       <r>   -33.1385     0.0000     0.0000 </r>
       <r>   -33.0067     0.0000     0.0000 </r>
       <r>   -32.8750     0.0000     0.0000 </r>
       <r>   -32.7433     0.0000     0.0000 </r>
       <r>   -32.6116     0.0000     0.0000 </r>
       <r>   -32.4799     0.0000     0.0000 </r>
       <r>   -32.3482     0.0000     0.0000 </r>
       <r>   -32.2165     0.0000     0.0000 </r>
       <r>   -32.0848     0.0000     0.0000 </r>
       <r>   -31.9530     0.0000     0.0000 </r>
       <r>   -31.8213     0.1343     0.0177 </r>
       <r>   -31.6896    13.7145     1.8241 </r>
       <r>   -31.5579     1.3358     2.0000 </r>
       <r>   -31.4262     0.0000     2.0000 </r>
       <r>   -31.2945     0.0000     2.0000 </r>
       <r>   -31.1628     0.0000     2.0000 </r>
       <r>   -31.0311     0.0000     2.0000 </r>
       <r>   -30.8993     0.0000     2.0000 </r>
       <r>   -30.7676     0.0000     2.0000 </r>
       <r>   -30.6359     0.0000     2.0000 </r>
       <r>   -30.5042     0.0000     2.0000 </r>
       <r>   -30.3725     0.0000     2.0000 </r>
       <r>   -30.2408     0.0000     2.0000 </r>
       <r>   -30.1091     0.0000     2.0000 </r>
       <r>   -29.9774     0.0000     2.0000 </r>
       <r>   -29.8456     0.0000     2.0000 </r>
       <r>   -29.7139     0.0000     2.0000 </r>
       <r>   -29.5822     0.0000     2.0000 </r>
       <r>   -29.4505     0.0000     2.0000 </r>
       <r>   -29.3188     0.0000     2.0000 </r>
       <r>   -29.1871     0.0000     2.0000 </r>
       <r>   -29.0554     0.0000     2.0000 </r>
       <r>   -28.9237     0.0000     2.0000 </r>
       <r>   -28.7920     0.0000     2.0000 </r>
       <r>   -28.6602     0.0000     2.0000 </r>
       <r>   -28.5285     0.0000     2.0000 </r>
       <r>   -28.3968     0.0000     2.0000 </r>
       <r>   -28.2651     0.0000     2.0000 </r>
       <r>   -28.1334     0.0000     2.0000 </r>
       <r>   -28.0017     0.0000     2.0000 </r>
       <r>   -27.8700     0.0000     2.0000 </r>
       <r>   -27.7383     0.0000     2.0000 </r>
       <r>   -27.6065     0.0000     2.0000 </r>
       <r>   -27.4748     0.0000     2.0000 </r>
       <r>   -27.3431     0.0000     2.0000 </r>
       <r>   -27.2114     0.0000     2.0000 </r>
       <r>   -27.0797     0.0000     2.0000 </r>
       <r>   -26.9480     0.0000     2.0000 </r>
       <r>   -26.8163     0.0000     2.0000 </r>
       <r>   -26.6846     0.0000     2.0000 </r>
       <r>   -26.5528     0.0000     2.0000 </r>
       <r>   -26.4211     0.0000     2.0000 </r>
       <r>   -26.2894     0.0000     2.0000 </r>
       <r>   -26.1577     0.0000     2.0000 </r>
       <r>   -26.0260     0.0000     2.0000 </r>
       <r>   -25.8943     0.0000     2.0000 </r>
       <r>   -25.7626     0.0000     2.0000 </r>
       <r>   -25.6309     0.0000     2.0000 </r>
       <r>   -25.4991     0.0000     2.0000 </r>
       <r>   -25.3674     0.0000     2.0000 </r>
       <r>   -25.2357     0.0000     2.0000 </r>
       <r>   -25.1040     0.0000     2.0000 </r>
       <r>   -24.9723     0.0000     2.0000 </r>
       <r>   -24.8406     0.0000     2.0000 </r>
       <r>   -24.7089     0.0000     2.0000 </r>
       <r>   -24.5772     0.0000     2.0000 </r>
       <r>   -24.4454     0.0000     2.0000 </r>
       <r>   -24.3137     0.0000     2.0000 </r>
       <r>   -24.1820     0.0000     2.0000 </r>
       <r>   -24.0503     0.0000     2.0000 </r>
       <r>   -23.9186     0.0000     2.0000 </r>
       <r>   -23.7869     0.0000     2.0000 </r>
       <r>   -23.6552     0.0000     2.0000 </r>
       <r>   -23.5235     0.0000     2.0000 </r>
       <r>   -23.3918     0.0000     2.0000 </r>
       <r>   -23.2600     0.0000     2.0000 </r>
       <r>   -23.1283     0.0000     2.0000 </r>
       <r>   -22.9966     0.0000     2.0000 </r>
       <r>   -22.8649     0.0000     2.0000 </r>
       <r>   -22.7332     0.0000     2.0000 </r>
       <r>   -22.6015     0.0000     2.0000 </r>
       <r>   -22.4698     0.0000     2.0000 </r>
       <r>   -22.3381     0.0492     2.0065 </r>
       <r>   -22.2063     4.7424     2.6311 </r>
       <r>   -22.0746     9.0160     3.8186 </r>
       <r>   -21.9429     4.8307     4.4549 </r>
       <r>   -21.8112    10.8126     5.8791 </r>
       <r>   -21.6795     5.5505     6.6101 </r>
       <r>   -21.5478     7.5374     7.6029 </r>
       <r>   -21.4161    13.0852     9.3264 </r>
       <r>   -21.2844     5.1119     9.9997 </r>
       <r>   -21.1526     4.0163    10.5287 </r>
       <r>   -21.0209     9.2241    11.7436 </r>
       <r>   -20.8892    11.2499    13.2253 </r>
       <r>   -20.7575     9.6598    14.4977 </r>
       <r>   -20.6258     8.0135    15.5531 </r>
       <r>   -20.4941     0.2205    15.5822 </r>
       <r>   -20.3624    13.2685    17.3298 </r>
       <r>   -20.2307     3.8769    17.8404 </r>
       <r>   -20.0989    18.7390    20.3086 </r>
       <r>   -19.9672     1.0469    20.4465 </r>
       <r>   -19.8355     3.8011    20.9471 </r>
       <r>   -19.7038    13.8726    22.7743 </r>
       <r>   -19.5721     8.4101    23.8820 </r>
       <r>   -19.4404     5.9535    24.6662 </r>
       <r>   -19.3087     7.3301    25.6317 </r>
       <r>   -19.1770    13.8052    27.4500 </r>
       <r>   -19.0452     7.6429    28.4566 </r>
       <r>   -18.9135     4.5487    29.0558 </r>
       <r>   -18.7818     5.1180    29.7299 </r>
       <r>   -18.6501     5.5709    30.4636 </r>
       <r>   -18.5184    13.6380    32.2599 </r>
       <r>   -18.3867    11.5697    33.7838 </r>
       <r>   -18.2550     8.3302    34.8810 </r>
       <r>   -18.1233     5.2796    35.5763 </r>
       <r>   -17.9915    14.9284    37.5426 </r>
       <r>   -17.8598     4.7820    38.1724 </r>
       <r>   -17.7281     3.6856    38.6579 </r>
       <r>   -17.5964     6.5651    39.5226 </r>
       <r>   -17.4647    15.3202    41.5404 </r>
       <r>   -17.3330     4.3433    42.1125 </r>
       <r>   -17.2013    21.0443    44.8843 </r>
       <r>   -17.0696     6.7994    45.7799 </r>
       <r>   -16.9379     3.3960    46.2272 </r>
       <r>   -16.8061     9.0232    47.4156 </r>
       <r>   -16.6744     4.2638    47.9772 </r>
       <r>   -16.5427     8.6608    49.1180 </r>
       <r>   -16.4110     8.8974    50.2899 </r>
       <r>   -16.2793     3.0169    50.6872 </r>
       <r>   -16.1476     9.3104    51.9135 </r>
       <r>   -16.0159     6.1383    52.7220 </r>
       <r>   -15.8842    13.0581    54.4419 </r>
       <r>   -15.7524    11.6024    55.9701 </r>
       <r>   -15.6207     2.1989    56.2597 </r>
       <r>   -15.4890     4.3240    56.8292 </r>
       <r>   -15.3573     2.6003    57.1717 </r>
       <r>   -15.2256    10.2676    58.5241 </r>
       <r>   -15.0939    22.2770    61.4583 </r>
       <r>   -14.9622     4.4675    62.0467 </r>
       <r>   -14.8305    11.7182    63.5901 </r>
       <r>   -14.6987    10.2065    64.9344 </r>
       <r>   -14.5670     6.3235    65.7673 </r>
       <r>   -14.4353    16.2879    67.9126 </r>
       <r>   -14.3036     4.0376    68.4444 </r>
       <r>   -14.1719     1.1721    68.5988 </r>
       <r>   -14.0402     3.9594    69.1203 </r>
       <r>   -13.9085    10.5829    70.5142 </r>
       <r>   -13.7768    17.2299    72.7836 </r>
       <r>   -13.6450    16.9798    75.0200 </r>
       <r>   -13.5133     1.7446    75.2498 </r>
       <r>   -13.3816     2.3192    75.5553 </r>
       <r>   -13.2499     0.6192    75.6368 </r>
       <r>   -13.1182    11.5260    77.1550 </r>
       <r>   -12.9865    13.8806    78.9832 </r>
       <r>   -12.8548    20.3062    81.6578 </r>
       <r>   -12.7231     0.9116    81.7778 </r>
       <r>   -12.5913     5.5021    82.5025 </r>
       <r>   -12.4596    17.0643    84.7501 </r>
       <r>   -12.3279    10.8301    86.1766 </r>
       <r>   -12.1962     3.5548    86.6448 </r>
       <r>   -12.0645     3.4192    87.0951 </r>
       <r>   -11.9328    11.8712    88.6587 </r>
       <r>   -11.8011     4.0728    89.1952 </r>
       <r>   -11.6694    16.4184    91.3577 </r>
       <r>   -11.5377    17.2608    93.6311 </r>
       <r>   -11.4059    13.2755    95.3797 </r>
       <r>   -11.2742     8.8327    96.5430 </r>
       <r>   -11.1425     5.4088    97.2555 </r>
       <r>   -11.0108     7.4009    98.2302 </r>
       <r>   -10.8791    13.7586   100.0424 </r>
       <r>   -10.7474    16.2418   102.1817 </r>
       <r>   -10.6157     2.2930   102.4837 </r>
       <r>   -10.4840    20.5131   105.1855 </r>
       <r>   -10.3522     3.7264   105.6763 </r>
       <r>   -10.2205    25.7592   109.0691 </r>
       <r>   -10.0888    24.7328   112.3267 </r>
       <r>    -9.9571    17.7801   114.6686 </r>
       <r>    -9.8254    16.0258   116.7794 </r>
       <r>    -9.6937    16.5779   118.9629 </r>
       <r>    -9.5620    28.2597   122.6851 </r>
       <r>    -9.4303    20.2032   125.3461 </r>
       <r>    -9.2985    27.9038   129.0213 </r>
       <r>    -9.1668    23.4654   132.1120 </r>
       <r>    -9.0351    28.6095   135.8802 </r>
       <r>    -8.9034    20.4440   138.5730 </r>
       <r>    -8.7717    16.4630   140.7413 </r>
       <r>    -8.6400    24.4734   143.9648 </r>
       <r>    -8.5083    16.7774   146.1746 </r>
       <r>    -8.3766    16.5701   148.3570 </r>
       <r>    -8.2448    15.0020   150.3330 </r>
       <r>    -8.1131    16.8802   152.5563 </r>
       <r>    -7.9814    28.0542   156.2514 </r>
       <r>    -7.8497    16.2665   158.3939 </r>
       <r>    -7.7180    15.4977   160.4351 </r>
       <r>    -7.5863     8.2686   161.5242 </r>
       <r>    -7.4546     1.9694   161.7836 </r>
       <r>    -7.3229    19.1239   164.3024 </r>
       <r>    -7.1911    32.0816   168.5280 </r>
       <r>    -7.0594    14.4306   170.4287 </r>
       <r>    -6.9277     5.2948   171.1261 </r>
       <r>    -6.7960    18.5462   173.5688 </r>
       <r>    -6.6643    13.1094   175.2955 </r>
       <r>    -6.5326    15.8278   177.3802 </r>
       <r>    -6.4009     6.9672   178.2979 </r>
       <r>    -6.2692    12.7726   179.9802 </r>
       <r>    -6.1374    15.3699   182.0046 </r>
       <r>    -6.0057    13.3263   183.7598 </r>
       <r>    -5.8740    20.8439   186.5052 </r>
       <r>    -5.7423     7.6146   187.5081 </r>
       <r>    -5.6106    13.3754   189.2698 </r>
       <r>    -5.4789     3.1334   189.6826 </r>
       <r>    -5.3472     8.2740   190.7723 </r>
       <r>    -5.2155     8.1060   191.8400 </r>
       <r>    -5.0838    12.5208   193.4891 </r>
       <r>    -4.9520    19.0055   195.9924 </r>
       <r>    -4.8203    13.7305   197.8009 </r>
       <r>    -4.6886     3.1463   198.2153 </r>
       <r>    -4.5569     0.0527   198.2222 </r>
       <r>    -4.4252     0.0001   198.2222 </r>
       <r>    -4.2935     3.5062   198.6840 </r>
       <r>    -4.1618    17.4587   200.9836 </r>
       <r>    -4.0301     4.3423   201.5555 </r>
       <r>    -3.8983     0.0005   201.5556 </r>
       <r>    -3.7666     0.5102   201.6228 </r>
       <r>    -3.6349     2.8522   201.9984 </r>
       <r>    -3.5032     0.3617   202.0461 </r>
       <r>    -3.3715     4.5459   202.6448 </r>
       <r>    -3.2398    12.2753   204.2616 </r>
       <r>    -3.1081    11.0909   205.7224 </r>
       <r>    -2.9764     2.1813   206.0097 </r>
       <r>    -2.8446     2.8069   206.3794 </r>
       <r>    -2.7129     8.8761   207.5485 </r>
       <r>    -2.5812     0.0534   207.5556 </r>
       <r>    -2.4495     0.1390   207.5739 </r>
       <r>    -2.3178     3.1691   207.9913 </r>
       <r>    -2.1861     2.9456   208.3792 </r>
       <r>    -2.0544     0.4950   208.4444 </r>
       <r>    -1.9227     0.0000   208.4444 </r>
       <r>    -1.7909     0.0000   208.4444 </r>
       <r>    -1.6592     0.2578   208.4784 </r>
       <r>    -1.5275     9.6397   209.7481 </r>
       <r>    -1.3958    13.1735   211.4832 </r>
       <r>    -1.2641     2.2366   211.7778 </r>
       <r>    -1.1324     0.0001   211.7778 </r>
       <r>    -1.0007     1.3248   211.9523 </r>
       <r>    -0.8690    12.2040   213.5597 </r>
       <r>    -0.7372    22.1138   216.4724 </r>
       <r>    -0.6055    18.0616   218.8513 </r>
       <r>    -0.4738     5.1799   219.5335 </r>
       <r>    -0.3421     0.2121   219.5615 </r>
       <r>    -0.2104     4.9269   220.2104 </r>
       <r>    -0.0787    11.2799   221.6961 </r>
       <r>     0.0530    10.2318   223.0438 </r>
       <r>     0.1847     0.7479   223.1423 </r>
       <r>     0.3164    16.6988   225.3417 </r>
       <r>     0.4482     7.1974   226.2897 </r>
       <r>     0.5799     3.2049   226.7118 </r>
       <r>     0.7116    12.4115   228.3466 </r>
       <r>     0.8433    15.6884   230.4129 </r>
       <r>     0.9750     6.3871   231.2542 </r>
       <r>     1.1067    11.4197   232.7583 </r>
       <r>     1.2384    14.2033   234.6290 </r>
       <r>     1.3701     8.9698   235.8105 </r>
       <r>     1.5019    14.9972   237.7858 </r>
       <r>     1.6336    22.9244   240.8052 </r>
       <r>     1.7653    16.2274   242.9426 </r>
       <r>     1.8970    26.6363   246.4509 </r>
       <r>     2.0287     8.4060   247.5580 </r>
       <r>     2.1604    16.5319   249.7355 </r>
       <r>     2.2921    26.2857   253.1976 </r>
       <r>     2.4238    28.4558   256.9456 </r>
       <r>     2.5556     6.5821   257.8126 </r>
       <r>     2.6873     6.4279   258.6592 </r>
       <r>     2.8190     9.3752   259.8940 </r>
       <r>     2.9507     4.6548   260.5071 </r>
       <r>     3.0824     9.2569   261.7263 </r>
       <r>     3.2141     2.9008   262.1084 </r>
       <r>     3.3458     4.2216   262.6645 </r>
       <r>     3.4775     0.0185   262.6669 </r>
       <r>     3.6093     3.6294   263.1449 </r>
       <r>     3.7410     3.1167   263.5554 </r>
       <r>     3.8727     0.0008   263.5556 </r>
       <r>     4.0044     0.0000   263.5556 </r>
       <r>     4.1361     0.2961   263.5946 </r>
       <r>     4.2678     3.0483   263.9961 </r>
       <r>     4.3995     0.0300   264.0000 </r>
       <r>     4.5312     0.0000   264.0000 </r>
       <r>     4.6630     0.0000   264.0000 </r>
       <r>     4.7947     0.0000   264.0000 </r>
       <r>     4.9264     0.0000   264.0000 </r>
       <r>     5.0581     0.0000   264.0000 </r>
       <r>     5.1898     0.0000   264.0000 </r>
       <r>     5.3215     0.0000   264.0000 </r>
       <r>     5.4532     0.0000   264.0000 </r>
       <r>     5.5849     0.0000   264.0000 </r>
       <r>     5.7167     0.0000   264.0000 </r>
       <r>     5.8484     0.0000   264.0000 </r>
       <r>     5.9801     0.0000   264.0000 </r>
      </set>
     </set>
    </array>
   </total>
  </dos>
 </calculation>
 <structure name="finalpos" >
  <crystal>
   <varray name="basis" >
    <v>      12.30000019       0.00000000       0.00000000 </v>
    <v>       6.15000080      10.65211222       0.00000000 </v>
    <v>       0.00000000       0.00000000      20.00000000 </v>
   </varray>
   <i name="volume">   2620.41964732 </i>
   <varray name="rec_basis" >
    <v>       0.08130081      -0.04693905       0.00000000 </v>
    <v>       0.00000000       0.09387809       0.00000000 </v>
    <v>       0.00000000       0.00000000       0.05000000 </v>
   </varray>
  </crystal>
  <varray name="positions" >
   <v>       0.00000000       0.00000000       0.41799748 </v>
   <v>       0.20000000       0.00000000       0.41799748 </v>
   <v>       0.40000000       0.00000000       0.41799748 </v>
   <v>       0.60000000       0.00000000       0.41799748 </v>
   <v>       0.80000000       0.00000000       0.41799748 </v>
   <v>       0.00000000       0.20000000       0.41799748 </v>
   <v>       0.20000000       0.20000000       0.41799748 </v>
   <v>       0.40000000       0.20000000       0.41799748 </v>
   <v>       0.60000000       0.20000000       0.41799748 </v>
   <v>       0.80000000       0.20000000       0.41799748 </v>
   <v>       0.00000000       0.40000000       0.41799748 </v>
   <v>       0.20000000       0.40000000       0.41799748 </v>
   <v>       0.40000000       0.40000000       0.41799748 </v>
   <v>       0.60000000       0.40000000       0.41799748 </v>
   <v>       0.80000000       0.40000000       0.41799748 </v>
   <v>       0.00000000       0.60000000       0.41799748 </v>
   <v>       0.20000000       0.60000000       0.41799748 </v>
   <v>       0.40000000       0.60000000       0.41799748 </v>
   <v>       0.60000000       0.60000000       0.41799748 </v>
   <v>       0.80000000       0.60000000       0.41799748 </v>
   <v>       0.00000000       0.80000000       0.41799748 </v>
   <v>       0.20000000       0.80000000       0.41799748 </v>
   <v>       0.40000000       0.80000000       0.41799748 </v>
   <v>       0.60000000       0.80000000       0.41799748 </v>
   <v>       0.80000000       0.80000000       0.41799748 </v>
   <v>       0.06666667       0.06666660       0.41800609 </v>
   <v>       0.26666667       0.06666660       0.41800609 </v>
   <v>       0.46666667       0.06666660       0.41800609 </v>
   <v>       0.66666667       0.06666660       0.41800609 </v>
   <v>       0.86666667       0.06666660       0.41800609 </v>
   <v>       0.06666667       0.26666660       0.41800609 </v>
   <v>       0.26666667       0.26666660       0.41800609 </v>
   <v>       0.46666667       0.26666660       0.41800609 </v>
   <v>       0.66666667       0.26666660       0.41800609 </v>
   <v>       0.86666667       0.26666660       0.41800609 </v>
   <v>       0.06666667       0.46666660       0.41800609 </v>
   <v>       0.26666667       0.46666660       0.41800609 </v>
   <v>       0.46666667       0.46666660       0.41800609 </v>
   <v>       0.66666667       0.46666660       0.41800609 </v>
   <v>       0.86666667       0.46666660       0.41800609 </v>
   <v>       0.06666667       0.66666660       0.41800609 </v>
   <v>       0.26666667       0.66666660       0.41800609 </v>
   <v>       0.46666667       0.66666660       0.41800609 </v>
   <v>       0.66747968       0.66666660       0.41800609 </v>
   <v>       0.86666667       0.66666660       0.41800609 </v>
   <v>       0.06666667       0.86666660       0.41800609 </v>
   <v>       0.26666667       0.86666660       0.41800609 </v>
   <v>       0.46666667       0.86666660       0.41800609 </v>
   <v>       0.66666667       0.86666660       0.41800609 </v>
   <v>       0.86666667       0.86666660       0.41800609 </v>
   <v>       0.40000000       0.40000000       0.46800609 </v>
  </varray>
  <varray name="velocities" >
   <v>       0.00000000       0.00000000       0.00000000 </v>
   <v>       0.00000000       0.00000000       0.00000000 </v>
   <v>       0.00000000       0.00000000       0.00000000 </v>
   <v>       0.00000000       0.00000000       0.00000000 </v>
   <v>       0.00000000       0.00000000       0.00000000 </v>
   <v>       0.00000000       0.00000000       0.00000000 </v>
   <v>       0.00000000       0.00000000       0.00000000 </v>
   <v>       0.00000000       0.00000000       0.00000000 </v>
   <v>       0.00000000       0.00000000       0.00000000 </v>
   <v>       0.00000000       0.00000000       0.00000000 </v>
   <v>       0.00000000       0.00000000       0.00000000 </v>
   <v>       0.00000000       0.00000000       0.00000000 </v>
   <v>       0.00000000       0.00000000       0.00000000 </v>
   <v>       0.00000000       0.00000000       0.00000000 </v>
   <v>       0.00000000       0.00000000       0.00000000 </v>
   <v>       0.00000000       0.00000000       0.00000000 </v>
   <v>       0.00000000       0.00000000       0.00000000 </v>
   <v>       0.00000000       0.00000000       0.00000000 </v>
   <v>       0.00000000       0.00000000       0.00000000 </v>
   <v>       0.00000000       0.00000000       0.00000000 </v>
   <v>       0.00000000       0.00000000       0.00000000 </v>
   <v>       0.00000000       0.00000000       0.00000000 </v>
   <v>       0.00000000       0.00000000       0.00000000 </v>
   <v>       0.00000000       0.00000000       0.00000000 </v>
   <v>       0.00000000       0.00000000       0.00000000 </v>
   <v>       0.00000000       0.00000000       0.00000000 </v>
   <v>       0.00000000       0.00000000       0.00000000 </v>
   <v>       0.00000000       0.00000000       0.00000000 </v>
   <v>       0.00000000       0.00000000       0.00000000 </v>
   <v>       0.00000000       0.00000000       0.00000000 </v>
   <v>       0.00000000       0.00000000       0.00000000 </v>
   <v>       0.00000000       0.00000000       0.00000000 </v>
   <v>       0.00000000       0.00000000       0.00000000 </v>
   <v>       0.00000000       0.00000000       0.00000000 </v>
   <v>       0.00000000       0.00000000       0.00000000 </v>
   <v>       0.00000000       0.00000000       0.00000000 </v>
   <v>       0.00000000       0.00000000       0.00000000 </v>
   <v>       0.00000000       0.00000000       0.00000000 </v>
   <v>       0.00000000       0.00000000       0.00000000 </v>
   <v>       0.00000000       0.00000000       0.00000000 </v>
   <v>       0.00000000       0.00000000       0.00000000 </v>
   <v>       0.00000000       0.00000000       0.00000000 </v>
   <v>       0.00000000       0.00000000       0.00000000 </v>
   <v>       0.00000000       0.00000000       0.00000000 </v>
   <v>       0.00000000       0.00000000       0.00000000 </v>
   <v>       0.00000000       0.00000000       0.00000000 </v>
   <v>       0.00000000       0.00000000       0.00000000 </v>
   <v>       0.00000000       0.00000000       0.00000000 </v>
   <v>       0.00000000       0.00000000       0.00000000 </v>
   <v>       0.00000000       0.00000000       0.00000000 </v>
   <v>       0.00000000       0.00000000       0.00000000 </v>
  </varray>
 </structure>
</modeling>
