  51  51   0   0
  0.5138078E+02  0.1230000E-08  0.1230000E-08  0.2000000E-08  0.5000000E-15
  1.000000000000000E-004
  CAR 
                                         
      5.97412927    -33.53747592  301     -3.01726143      1.00000000
    -33.537  0.0000E+00  0.0000E+00
    -33.406  0.0000E+00  0.0000E+00
    -33.274  0.0000E+00  0.0000E+00
    -33.142  0.0000E+00  0.0000E+00
    -33.011  0.0000E+00  0.0000E+00
    -32.879  0.0000E+00  0.0000E+00
    -32.747  0.0000E+00  0.0000E+00
    -32.616  0.0000E+00  0.0000E+00
    -32.484  0.0000E+00  0.0000E+00
    -32.352  0.0000E+00  0.0000E+00
    -32.220  0.0000E+00  0.0000E+00
    -32.089  0.0000E+00  0.0000E+00
    -31.957  0.8202E-08  0.1080E-08
    -31.825  0.1344E+00  0.1770E-01
    -31.694  0.1372E+02  0.1824E+01
    -31.562  0.1336E+01  0.2000E+01
    -31.430  0.2889E-05  0.2000E+01
    -31.298  0.0000E+00  0.2000E+01
    -31.167  0.0000E+00  0.2000E+01
    -31.035  0.0000E+00  0.2000E+01
    -30.903  0.0000E+00  0.2000E+01
    -30.772  0.0000E+00  0.2000E+01
    -30.640  0.0000E+00  0.2000E+01
    -30.508  0.0000E+00  0.2000E+01
    -30.377  0.0000E+00  0.2000E+01
    -30.245  0.0000E+00  0.2000E+01
    -30.113  0.0000E+00  0.2000E+01
    -29.981  0.0000E+00  0.2000E+01
    -29.850  0.0000E+00  0.2000E+01
    -29.718  0.0000E+00  0.2000E+01
    -29.586  0.0000E+00  0.2000E+01
    -29.455  0.0000E+00  0.2000E+01
    -29.323  0.0000E+00  0.2000E+01
    -29.191  0.0000E+00  0.2000E+01
    -29.059  0.0000E+00  0.2000E+01
    -28.928  0.0000E+00  0.2000E+01
    -28.796  0.0000E+00  0.2000E+01
    -28.664  0.0000E+00  0.2000E+01
    -28.533  0.0000E+00  0.2000E+01
    -28.401  0.0000E+00  0.2000E+01
    -28.269  0.0000E+00  0.2000E+01
    -28.138  0.0000E+00  0.2000E+01
    -28.006  0.0000E+00  0.2000E+01
    -27.874  0.0000E+00  0.2000E+01
    -27.742  0.0000E+00  0.2000E+01
    -27.611  0.0000E+00  0.2000E+01
    -27.479  0.0000E+00  0.2000E+01
    -27.347  0.0000E+00  0.2000E+01
    -27.216  0.0000E+00  0.2000E+01
    -27.084  0.0000E+00  0.2000E+01
    -26.952  0.0000E+00  0.2000E+01
    -26.821  0.0000E+00  0.2000E+01
    -26.689  0.0000E+00  0.2000E+01
    -26.557  0.0000E+00  0.2000E+01
    -26.425  0.0000E+00  0.2000E+01
    -26.294  0.0000E+00  0.2000E+01
    -26.162  0.0000E+00  0.2000E+01
    -26.030  0.0000E+00  0.2000E+01
    -25.899  0.0000E+00  0.2000E+01
    -25.767  0.0000E+00  0.2000E+01
    -25.635  0.0000E+00  0.2000E+01
    -25.503  0.0000E+00  0.2000E+01
    -25.372  0.0000E+00  0.2000E+01
    -25.240  0.0000E+00  0.2000E+01
    -25.108  0.0000E+00  0.2000E+01
    -24.977  0.0000E+00  0.2000E+01
    -24.845  0.0000E+00  0.2000E+01
    -24.713  0.0000E+00  0.2000E+01
    -24.582  0.0000E+00  0.2000E+01
    -24.450  0.0000E+00  0.2000E+01
    -24.318  0.0000E+00  0.2000E+01
    -24.186  0.0000E+00  0.2000E+01
    -24.055  0.0000E+00  0.2000E+01
    -23.923  0.0000E+00  0.2000E+01
    -23.791  0.0000E+00  0.2000E+01
    -23.660  0.0000E+00  0.2000E+01
    -23.528  0.0000E+00  0.2000E+01
    -23.396  0.0000E+00  0.2000E+01
    -23.264  0.0000E+00  0.2000E+01
    -23.133  0.0000E+00  0.2000E+01
    -23.001  0.0000E+00  0.2000E+01
    -22.869  0.0000E+00  0.2000E+01
    -22.738  0.0000E+00  0.2000E+01
    -22.606  0.0000E+00  0.2000E+01
    -22.474  0.7416E-08  0.2000E+01
    -22.343  0.3603E-01  0.2005E+01
    -22.211  0.4272E+01  0.2567E+01
    -22.079  0.9281E+01  0.3790E+01
    -21.947  0.4964E+01  0.4443E+01
    -21.816  0.1059E+02  0.5838E+01
    -21.684  0.5450E+01  0.6556E+01
    -21.552  0.7862E+01  0.7592E+01
    -21.421  0.1263E+02  0.9255E+01
    -21.289  0.5653E+01  0.9999E+01
    -21.157  0.3669E+01  0.1048E+02
    -21.025  0.9089E+01  0.1168E+02
    -20.894  0.1083E+02  0.1311E+02
    -20.762  0.1015E+02  0.1444E+02
    -20.630  0.8424E+01  0.1555E+02
    -20.499  0.1797E+00  0.1558E+02
    -20.367  0.1308E+02  0.1730E+02
    -20.235  0.4002E+01  0.1783E+02
    -20.104  0.1857E+02  0.2027E+02
    -19.972  0.1330E+01  0.2045E+02
    -19.840  0.3565E+01  0.2092E+02
    -19.708  0.1389E+02  0.2275E+02
    -19.577  0.8443E+01  0.2386E+02
    -19.445  0.6133E+01  0.2467E+02
    -19.313  0.6749E+01  0.2555E+02
    -19.182  0.1414E+02  0.2742E+02
    -19.050  0.7329E+01  0.2838E+02
    -18.918  0.4901E+01  0.2903E+02
    -18.786  0.5265E+01  0.2972E+02
    -18.655  0.4975E+01  0.3038E+02
    -18.523  0.1404E+02  0.3222E+02
    -18.391  0.1135E+02  0.3372E+02
    -18.260  0.8819E+01  0.3488E+02
    -18.128  0.4839E+01  0.3552E+02
    -17.996  0.1524E+02  0.3753E+02
    -17.865  0.4781E+01  0.3816E+02
    -17.733  0.3792E+01  0.3865E+02
    -17.601  0.5592E+01  0.3939E+02
    -17.469  0.1584E+02  0.4148E+02
    -17.338  0.4321E+01  0.4205E+02
    -17.206  0.2142E+02  0.4487E+02
    -17.074  0.6744E+01  0.4576E+02
    -16.943  0.3537E+01  0.4622E+02
    -16.811  0.8758E+01  0.4738E+02
    -16.679  0.4128E+01  0.4792E+02
    -16.547  0.8952E+01  0.4910E+02
    -16.416  0.8942E+01  0.5028E+02
    -16.284  0.3031E+01  0.5068E+02
    -16.152  0.9417E+01  0.5192E+02
    -16.021  0.5705E+01  0.5267E+02
    -15.889  0.1300E+02  0.5438E+02
    -15.757  0.1196E+02  0.5595E+02
    -15.626  0.2077E+01  0.5623E+02
    -15.494  0.4145E+01  0.5677E+02
    -15.362  0.2930E+01  0.5716E+02
    -15.230  0.1018E+02  0.5850E+02
    -15.099  0.2191E+02  0.6139E+02
    -14.967  0.4876E+01  0.6203E+02
    -14.835  0.1137E+02  0.6353E+02
    -14.704  0.1052E+02  0.6491E+02
    -14.572  0.6409E+01  0.6575E+02
    -14.440  0.1555E+02  0.6780E+02
    -14.308  0.4868E+01  0.6844E+02
    -14.177  0.1080E+01  0.6859E+02
    -14.045  0.4028E+01  0.6912E+02
    -13.913  0.9792E+01  0.7041E+02
    -13.782  0.1708E+02  0.7266E+02
    -13.650  0.1783E+02  0.7500E+02
    -13.518  0.1647E+01  0.7522E+02
    -13.387  0.2530E+01  0.7556E+02
    -13.255  0.5311E+00  0.7562E+02
    -13.123  0.1102E+02  0.7708E+02
    -12.991  0.1391E+02  0.7891E+02
    -12.860  0.2054E+02  0.8161E+02
    -12.728  0.1237E+01  0.8178E+02
    -12.596  0.4720E+01  0.8240E+02
    -12.465  0.1778E+02  0.8474E+02
    -12.333  0.1075E+02  0.8616E+02
    -12.201  0.3619E+01  0.8663E+02
    -12.070  0.3446E+01  0.8709E+02
    -11.938  0.1190E+02  0.8865E+02
    -11.806  0.3502E+01  0.8912E+02
    -11.674  0.1609E+02  0.9123E+02
    -11.543  0.1764E+02  0.9356E+02
    -11.411  0.1368E+02  0.9536E+02
    -11.279  0.8244E+01  0.9645E+02
    -11.148  0.5808E+01  0.9721E+02
    -11.016  0.7711E+01  0.9823E+02
    -10.884  0.1279E+02  0.9991E+02
    -10.752  0.1710E+02  0.1022E+03
    -10.621  0.2111E+01  0.1024E+03
    -10.489  0.2054E+02  0.1051E+03
    -10.357  0.3818E+01  0.1056E+03
    -10.226  0.2448E+02  0.1089E+03
    -10.094  0.2551E+02  0.1122E+03
     -9.962  0.1842E+02  0.1147E+03
     -9.831  0.1469E+02  0.1166E+03
     -9.699  0.1756E+02  0.1189E+03
     -9.567  0.2778E+02  0.1226E+03
     -9.435  0.2054E+02  0.1253E+03
     -9.304  0.2733E+02  0.1289E+03
     -9.172  0.2343E+02  0.1320E+03
     -9.040  0.2885E+02  0.1358E+03
     -8.909  0.1996E+02  0.1384E+03
     -8.777  0.1767E+02  0.1407E+03
     -8.645  0.2356E+02  0.1438E+03
     -8.513  0.1736E+02  0.1461E+03
     -8.382  0.1620E+02  0.1482E+03
     -8.250  0.1559E+02  0.1503E+03
     -8.118  0.1585E+02  0.1524E+03
     -7.987  0.2859E+02  0.1561E+03
     -7.855  0.1635E+02  0.1583E+03
     -7.723  0.1625E+02  0.1604E+03
     -7.592  0.8216E+01  0.1615E+03
     -7.460  0.2034E+01  0.1618E+03
     -7.328  0.1793E+02  0.1641E+03
     -7.196  0.3179E+02  0.1683E+03
     -7.065  0.1591E+02  0.1704E+03
     -6.933  0.4574E+01  0.1710E+03
     -6.801  0.1915E+02  0.1735E+03
     -6.670  0.1271E+02  0.1752E+03
     -6.538  0.1591E+02  0.1773E+03
     -6.406  0.7073E+01  0.1783E+03
     -6.274  0.1264E+02  0.1799E+03
     -6.143  0.1515E+02  0.1819E+03
     -6.011  0.1384E+02  0.1837E+03
     -5.879  0.2023E+02  0.1864E+03
     -5.748  0.7914E+01  0.1874E+03
     -5.616  0.1351E+02  0.1892E+03
     -5.484  0.3316E+01  0.1897E+03
     -5.353  0.7935E+01  0.1907E+03
     -5.221  0.8573E+01  0.1918E+03
     -5.089  0.1182E+02  0.1934E+03
     -4.957  0.1865E+02  0.1958E+03
     -4.826  0.1478E+02  0.1978E+03
     -4.694  0.3191E+01  0.1982E+03
     -4.562  0.8901E-01  0.1982E+03
     -4.431  0.4365E-04  0.1982E+03
     -4.299  0.3146E+01  0.1986E+03
     -4.167  0.1730E+02  0.2009E+03
     -4.035  0.4864E+01  0.2016E+03
     -3.904  0.7956E-03  0.2016E+03
     -3.772  0.4889E+00  0.2016E+03
     -3.640  0.2873E+01  0.2020E+03
     -3.509  0.2632E+00  0.2020E+03
     -3.377  0.4438E+01  0.2026E+03
     -3.245  0.1229E+02  0.2042E+03
     -3.114  0.1080E+02  0.2057E+03
     -2.982  0.2646E+01  0.2060E+03
     -2.850  0.2566E+01  0.2063E+03
     -2.718  0.9114E+01  0.2075E+03
     -2.587  0.7703E-01  0.2076E+03
     -2.455  0.8609E-01  0.2076E+03
     -2.323  0.3169E+01  0.2080E+03
     -2.192  0.2897E+01  0.2084E+03
     -2.060  0.5969E+00  0.2084E+03
     -1.928  0.5533E-05  0.2084E+03
     -1.796  0.3517E-07  0.2084E+03
     -1.665  0.1956E+00  0.2085E+03
     -1.533  0.9518E+01  0.2097E+03
     -1.401  0.1234E+02  0.2113E+03
     -1.270  0.3254E+01  0.2118E+03
     -1.138  0.1715E-03  0.2118E+03
     -1.006  0.1244E+01  0.2119E+03
     -0.875  0.1063E+02  0.2133E+03
     -0.743  0.2337E+02  0.2164E+03
     -0.611  0.1828E+02  0.2188E+03
     -0.479  0.5329E+01  0.2195E+03
     -0.348  0.2235E+00  0.2196E+03
     -0.216  0.4583E+01  0.2202E+03
     -0.084  0.1139E+02  0.2217E+03
      0.047  0.1033E+02  0.2230E+03
      0.179  0.8210E+00  0.2231E+03
      0.311  0.1666E+02  0.2253E+03
      0.443  0.7179E+01  0.2263E+03
      0.574  0.3332E+01  0.2267E+03
      0.706  0.1106E+02  0.2282E+03
      0.838  0.1672E+02  0.2304E+03
      0.969  0.6286E+01  0.2312E+03
      1.101  0.1115E+02  0.2327E+03
      1.233  0.1477E+02  0.2346E+03
      1.364  0.8235E+01  0.2357E+03
      1.496  0.1513E+02  0.2377E+03
      1.628  0.2293E+02  0.2407E+03
      1.760  0.1573E+02  0.2428E+03
      1.891  0.2732E+02  0.2464E+03
      2.023  0.8232E+01  0.2475E+03
      2.155  0.1619E+02  0.2496E+03
      2.286  0.2627E+02  0.2531E+03
      2.418  0.2878E+02  0.2568E+03
      2.550  0.7236E+01  0.2578E+03
      2.681  0.6383E+01  0.2586E+03
      2.813  0.8968E+01  0.2598E+03
      2.945  0.5054E+01  0.2605E+03
      3.077  0.9165E+01  0.2617E+03
      3.208  0.2883E+01  0.2621E+03
      3.340  0.4497E+01  0.2627E+03
      3.472  0.2636E-01  0.2627E+03
      3.603  0.3334E+01  0.2631E+03
      3.735  0.3413E+01  0.2636E+03
      3.867  0.1002E-02  0.2636E+03
      3.999  0.6375E-06  0.2636E+03
      4.130  0.2962E+00  0.2636E+03
      4.262  0.3048E+01  0.2640E+03
      4.394  0.2997E-01  0.2640E+03
      4.525  0.1838E-08  0.2640E+03
      4.657  0.0000E+00  0.2640E+03
      4.789  0.0000E+00  0.2640E+03
      4.920  0.0000E+00  0.2640E+03
      5.052  0.0000E+00  0.2640E+03
      5.184  0.0000E+00  0.2640E+03
      5.316  0.0000E+00  0.2640E+03
      5.447  0.0000E+00  0.2640E+03
      5.579  0.0000E+00  0.2640E+03
      5.711  0.0000E+00  0.2640E+03
      5.842  0.0000E+00  0.2640E+03
      5.974  0.0000E+00  0.2640E+03
