 vasp.5.4.4.18Apr17-6-g9f103f2a35 (build Aug 13 2022 23:40:43) complex          
  
 executed on             LinuxIFC date 2024.11.10  03:49:21
 running on   48 total cores
 distrk:  each k-point on   48 cores,    1 groups
 distr:  one band on NCORES_PER_BAND=   8 cores,    6 groups


--------------------------------------------------------------------------------------------------------


 INCAR:
 POTCAR:    PAW_PBE C 08Apr2002                   
 POTCAR:    PAW_PBE O 08Apr2002                   
 POTCAR:    PAW_PBE C 08Apr2002                   
   VRHFIN =C: s2p2                                                              
   LEXCH  = PE                                                                  
   EATOM  =   147.1560 eV,   10.8157 Ry                                         
                                                                                
   TITEL  = PAW_PBE C 08Apr2002                                                 
   LULTRA =        F    use ultrasoft PP ?                                      
   IUNSCR =        1    unscreen: 0-lin 1-nonlin 2-no                           
   RPACOR =    1.200    partial core radius                                     
   POMASS =   12.011; ZVAL   =    4.000    mass and valenz                      
   RCORE  =    1.500    outmost cutoff radius                                   
   RWIGS  =    1.630; RWIGS  =    0.863    wigner-seitz radius (au A)           
   ENMAX  =  400.000; ENMIN  =  300.000 eV                                      
   ICORE  =        2    local potential                                         
   LCOR   =        T    correct aug charges                                     
   LPAW   =        T    paw PP                                                  
   EAUG   =  644.873                                                            
   DEXC   =    0.000                                                            
   RMAX   =    1.529    core radius for proj-oper                               
   RAUG   =    1.300    factor for augmentation sphere                          
   RDEP   =    1.501    radius for radial grids                                 
   RDEPT  =    1.300    core radius for aug-charge                              
                                                                                
   Atomic configuration                                                         
    4 entries                                                                   
     n  l   j            E        occ.                                          
     1  0  0.50      -273.3789   2.0000                                         
     2  0  0.50       -13.7508   2.0000                                         
     2  1  0.50        -5.2854   2.0000                                         
     3  2  1.50        -5.4423   0.0000                                         
   Description                                                                  
     l       E           TYP  RCUT    TYP  RCUT                                 
     0    -13.7508458     23  1.200                                             
     0     -8.2022199     23  1.200                                             
     1     -5.2854383     23  1.500                                             
     1     34.0145650     23  1.500                                             
     2     -5.4423304      7  1.500                                             
  local pseudopotential read in
  partial core-charges read in
  partial kinetic energy density read in
  atomic valenz-charges read in
  non local Contribution for L=           0  read in
    real space projection operators read in
  non local Contribution for L=           0  read in
    real space projection operators read in
  non local Contribution for L=           1  read in
    real space projection operators read in
  non local Contribution for L=           1  read in
    real space projection operators read in
    PAW grid and wavefunctions read in
 
   number of l-projection  operators is LMAX  =           4
   number of lm-projection operators is LMMAX =           8
 
 POTCAR:    PAW_PBE O 08Apr2002                   
   VRHFIN =O: s2p4                                                              
   LEXCH  = PE                                                                  
   EATOM  =   432.3788 eV,   31.7789 Ry                                         
                                                                                
   TITEL  = PAW_PBE O 08Apr2002                                                 
   LULTRA =        F    use ultrasoft PP ?                                      
   IUNSCR =        1    unscreen: 0-lin 1-nonlin 2-no                           
   RPACOR =    1.200    partial core radius                                     
   POMASS =   16.000; ZVAL   =    6.000    mass and valenz                      
   RCORE  =    1.520    outmost cutoff radius                                   
   RWIGS  =    1.550; RWIGS  =    0.820    wigner-seitz radius (au A)           
   ENMAX  =  400.000; ENMIN  =  300.000 eV                                      
   ICORE  =        2    local potential                                         
   LCOR   =        T    correct aug charges                                     
   LPAW   =        T    paw PP                                                  
   EAUG   =  605.392                                                            
   DEXC   =    0.000                                                            
   RMAX   =    1.553    core radius for proj-oper                               
   RAUG   =    1.300    factor for augmentation sphere                          
   RDEP   =    1.550    radius for radial grids                                 
   RDEPT  =    1.329    core radius for aug-charge                              
                                                                                
   Atomic configuration                                                         
    4 entries                                                                   
     n  l   j            E        occ.                                          
     1  0  0.50      -514.6923   2.0000                                         
     2  0  0.50       -23.9615   2.0000                                         
     2  1  0.50        -9.0305   4.0000                                         
     3  2  1.50        -9.5241   0.0000                                         
   Description                                                                  
     l       E           TYP  RCUT    TYP  RCUT                                 
     0    -23.9615318     23  1.200                                             
     0     -9.5240782     23  1.200                                             
     1     -9.0304911     23  1.520                                             
     1      8.1634956     23  1.520                                             
     2     -9.5240782      7  1.500                                             
  local pseudopotential read in
  partial core-charges read in
  partial kinetic energy density read in
  kinetic energy density of atom read in
  atomic valenz-charges read in
  non local Contribution for L=           0  read in
    real space projection operators read in
  non local Contribution for L=           0  read in
    real space projection operators read in
  non local Contribution for L=           1  read in
    real space projection operators read in
  non local Contribution for L=           1  read in
    real space projection operators read in
    PAW grid and wavefunctions read in
 
   number of l-projection  operators is LMAX  =           4
   number of lm-projection operators is LMMAX =           8
 

 ----------------------------------------------------------------------------- 
|                                                                             |
|  ADVICE TO THIS USER RUNNING 'VASP/VAMP'   (HEAR YOUR MASTER'S VOICE ...):  |
|                                                                             |
|      You have a (more or less) 'large supercell' and for larger cells       |
|      it might be more efficient to use real space projection opertators     |
|      So try LREAL= Auto  in the INCAR   file.                               |
|      Mind:          For very  accurate calculation you might also keep the  |
|      reciprocal projection scheme          (i.e. LREAL=.FALSE.)             |
|                                                                             |
 ----------------------------------------------------------------------------- 

  PAW_PBE C 08Apr2002                   :
 energy of atom  1       EATOM= -147.1560
 kinetic energy error for atom=    0.0288 (will be added to EATOM!!)
  PAW_PBE O 08Apr2002                   :
 energy of atom  2       EATOM= -432.3788
 kinetic energy error for atom=    0.1156 (will be added to EATOM!!)
 
 
 POSCAR: generated by phonopy                    
  positions in direct lattice
  No initial velocities read in
 exchange correlation table for  LEXCH =        8
   RHO(1)=    0.500       N(1)  =     2000
   RHO(2)=  100.500       N(2)  =     4000

 VTST: version 3.2, (02/03/18)

 CHAIN: initializing optimizer
 
 OPT: Using VASP Dynamics algorithm
 CHAIN: Read ICHAIN            0
 
 POSCAR: generated by phonopy                    
  positions in direct lattice
  No initial velocities read in
 


--------------------------------------------------------------------------------------------------------


 ion  position               nearest neighbor table
   1  0.000  0.000  0.418-  26 1.42  30 1.42  46 1.42
   2  0.200  0.000  0.418-  27 1.42  26 1.42  47 1.42
   3  0.400  0.000  0.418-  28 1.42  27 1.42  48 1.42
   4  0.600  0.999  0.418-  49 1.41  28 1.42  29 1.43
   5  0.800  0.000  0.418-  30 1.42  29 1.42  50 1.42
   6  0.000  0.200  0.418-  31 1.42  35 1.42  26 1.42
   7  0.200  0.200  0.418-  32 1.42  31 1.42  27 1.42
   8  0.400  0.200  0.418-  33 1.42  32 1.42  28 1.42
   9  0.600  0.200  0.418-  34 1.42  33 1.42  29 1.42
  10  0.800  0.200  0.418-  35 1.42  34 1.42  30 1.42
  11  0.000  0.400  0.418-  36 1.42  40 1.42  31 1.42
  12  0.200  0.400  0.418-  37 1.42  36 1.42  32 1.42
  13  0.400  0.400  0.418-  51 1.00  38 1.42  37 1.42  33 1.42
  14  0.600  0.400  0.418-  39 1.42  38 1.42  34 1.42
  15  0.800  0.400  0.418-  40 1.42  39 1.42  35 1.42
  16  0.000  0.600  0.418-  41 1.42  45 1.42  36 1.42
  17  0.200  0.600  0.418-  42 1.42  41 1.42  37 1.42
  18  0.400  0.600  0.418-  43 1.42  42 1.42  38 1.42
  19  0.600  0.600  0.418-  44 1.42  43 1.42  39 1.42
  20  0.800  0.600  0.418-  45 1.42  44 1.42  40 1.42
  21  0.000  0.800  0.418-  46 1.42  50 1.42  41 1.42
  22  0.200  0.800  0.418-  47 1.42  46 1.42  42 1.42
  23  0.400  0.800  0.418-  48 1.42  47 1.42  43 1.42
  24  0.600  0.800  0.418-  49 1.42  48 1.42  44 1.42
  25  0.800  0.800  0.418-  50 1.42  49 1.42  45 1.42
  26  0.067  0.067  0.418-   1 1.42   2 1.42   6 1.42
  27  0.267  0.067  0.418-   2 1.42   3 1.42   7 1.42
  28  0.467  0.067  0.418-   3 1.42   8 1.42   4 1.42
  29  0.667  0.067  0.418-   5 1.42   9 1.42   4 1.43
  30  0.867  0.067  0.418-   5 1.42   1 1.42  10 1.42
  31  0.067  0.267  0.418-   6 1.42   7 1.42  11 1.42
  32  0.267  0.267  0.418-   7 1.42   8 1.42  12 1.42
  33  0.467  0.267  0.418-   8 1.42   9 1.42  13 1.42  51 1.74
  34  0.667  0.267  0.418-   9 1.42  10 1.42  14 1.42
  35  0.867  0.267  0.418-  10 1.42   6 1.42  15 1.42
  36  0.067  0.467  0.418-  11 1.42  12 1.42  16 1.42
  37  0.267  0.467  0.418-  12 1.42  13 1.42  17 1.42  51 1.74
  38  0.467  0.467  0.418-  13 1.42  14 1.42  18 1.42  51 1.74
  39  0.667  0.467  0.418-  14 1.42  15 1.42  19 1.42
  40  0.867  0.467  0.418-  15 1.42  11 1.42  20 1.42
  41  0.067  0.667  0.418-  16 1.42  17 1.42  21 1.42
  42  0.267  0.667  0.418-  17 1.42  18 1.42  22 1.42
  43  0.467  0.667  0.418-  18 1.42  19 1.42  23 1.42
  44  0.667  0.667  0.418-  19 1.42  20 1.42  24 1.42
  45  0.867  0.667  0.418-  20 1.42  16 1.42  25 1.42
  46  0.067  0.867  0.418-  21 1.42  22 1.42   1 1.42
  47  0.267  0.867  0.418-  22 1.42  23 1.42   2 1.42
  48  0.467  0.867  0.418-  23 1.42  24 1.42   3 1.42
  49  0.667  0.867  0.418-   4 1.41  24 1.42  25 1.42
  50  0.867  0.867  0.418-  25 1.42  21 1.42   5 1.42
  51  0.400  0.400  0.468-  13 1.00  38 1.74  37 1.74  33 1.74
 
  LATTYP: Found a hexagonal cell.
 ALAT       =    12.2999994816
 C/A-ratio  =     1.6260163287
  
  Lattice vectors:
  
 A1 = (   6.1499993860, -10.6521122225,   0.0000000000)
 A2 = ( -12.3000001905,   0.0000000000,   0.0000000000)
 A3 = (   0.0000000000,   0.0000000000, -20.0000000000)


Analysis of symmetry for initial positions (statically):
=====================================================================
 Subroutine PRICEL returns:
 Original cell was already a primitive cell.
 

 Routine SETGRP: Setting up the symmetry group for a 
 hexagonal supercell.


 Subroutine GETGRP returns: Found  1 space group operations
 (whereof  1 operations were pure point group operations)
 out of a pool of 24 trial point group operations.


The static configuration has the point symmetry C_1 .


Analysis of symmetry for dynamics (positions and initial velocities):
=====================================================================
 Subroutine PRICEL returns:
 Original cell was already a primitive cell.
 

 Routine SETGRP: Setting up the symmetry group for a 
 hexagonal supercell.


 Subroutine GETGRP returns: Found  1 space group operations
 (whereof  1 operations were pure point group operations)
 out of a pool of 24 trial point group operations.


The dynamic configuration has the point symmetry C_1 .


 Subroutine INISYM returns: Found  1 space group operations
 (whereof  1 operations are pure point group operations),
 and found     1 'primitive' translations

 
 
 KPOINTS: K-POINTS                                

Automatic generation of k-mesh.
Space group operators:
 irot       det(A)        alpha          n_x          n_y          n_z        tau_x        tau_y        tau_z
    1     1.000000     0.000000     1.000000     0.000000     0.000000     0.000000     0.000000     0.000000
 
 Subroutine IBZKPT returns following result:
 ===========================================
 
 Found      5 irreducible k-points:
 
 Following reciprocal coordinates:
            Coordinates               Weight
  0.000000  0.000000  0.000000      1.000000
  0.333333  0.000000  0.000000      2.000000
  0.000000  0.333333  0.000000      2.000000
  0.333333  0.333333  0.000000      2.000000
 -0.333333  0.333333  0.000000      2.000000
 
 Following cartesian coordinates:
            Coordinates               Weight
  0.000000  0.000000  0.000000      1.000000
  0.027100 -0.015646  0.000000      2.000000
  0.000000  0.031293  0.000000      2.000000
  0.027100  0.015646  0.000000      2.000000
 -0.027100  0.046939  0.000000      2.000000
 


--------------------------------------------------------------------------------------------------------




 Dimension of arrays:
   k-points           NKPTS =      5   k-points in BZ     NKDIM =      5   number of bands    NBANDS=    132
   number of dos      NEDOS =    301   number of ions     NIONS =     51
   non local maximal  LDIM  =      4   non local SUM 2l+1 LMDIM =      8
   total plane-waves  NPLWV = 896000
   max r-space proj   IRMAX =      1   max aug-charges    IRDMAX=  35685
   dimension x,y,z NGX =    80 NGY =   80 NGZ =  140
   dimension x,y,z NGXF=   160 NGYF=  160 NGZF=  280
   support grid    NGXF=   320 NGYF=  320 NGZF=  560
   ions per type =              50   1
   NGX,Y,Z   is equivalent  to a cutoff of  10.81, 10.81, 11.64 a.u.
   NGXF,Y,Z  is equivalent  to a cutoff of  21.63, 21.63, 23.27 a.u.

 SYSTEM =                                          
 POSCAR =  generated by phonopy                    

 Startparameter for this run:
   NWRITE =      2    write-flag & timer
   PREC   = accura    normal or accurate (medium, high low for compatibility)
   ISTART =      1    job   : 0-new  1-cont  2-samecut
   ICHARG =      1    charge: 1-file 2-atom 10-const
   ISPIN  =      1    spin polarized calculation?
   LNONCOLLINEAR =      F non collinear calculations
   LSORBIT =      F    spin-orbit coupling
   INIWAV =      1    electr: 0-lowe 1-rand  2-diag
   LASPH  =      F    aspherical Exc in radial PAW
   METAGGA=      F    non-selfconsistent MetaGGA calc.

 Electronic Relaxation 1
   ENCUT  =  400.0 eV  29.40 Ry    5.42 a.u.  20.06 20.06 32.61*2*pi/ulx,y,z
   ENINI  =  400.0     initial cutoff
   ENAUG  =  644.9 eV  augmentation charge cutoff
   NELM   =    300;   NELMIN=  2; NELMDL=  0     # of ELM steps 
   EDIFF  = 0.1E-04   stopping-criterion for ELM
   LREAL  =      F    real-space projection
   NLSPLINE    = F    spline interpolate recip. space projectors
   LCOMPAT=      F    compatible to vasp.4.4
   GGA_COMPAT  = T    GGA compatible to vasp.4.4-vasp.4.6
   LMAXPAW     = -100 max onsite density
   LMAXMIX     =    2 max onsite mixed and CHGCAR
   VOSKOWN=      0    Vosko Wilk Nusair interpolation
   ROPT   =    0.00000   0.00000
 Ionic relaxation
   EDIFFG = -.1E-02   stopping-criterion for IOM
   NSW    =      1    number of steps for IOM
   NBLOCK =      1;   KBLOCK =      1    inner block; outer block 
   IBRION =     -1    ionic relax: 0-MD 1-quasi-New 2-CG
   NFREE  =      0    steps in history (QN), initial steepest desc. (CG)
   ISIF   =      2    stress and relaxation
   IWAVPR =     10    prediction:  0-non 1-charg 2-wave 3-comb
   ISYM   =      2    0-nonsym 1-usesym 2-fastsym
   LCORR  =      T    Harris-Foulkes like correction to forces

   POTIM  = 0.5000    time-step for ionic-motion
   TEIN   =    0.0    initial temperature
   TEBEG  =    0.0;   TEEND  =   0.0 temperature during run
   SMASS  =  -3.00    Nose mass-parameter (am)
   estimated Nose-frequenzy (Omega)   =  0.10E-29 period in steps =****** mass=  -0.346E-26a.u.
   SCALEE = 1.0000    scale energy and forces
   NPACO  =    256;   APACO  = 16.0  distance and # of slots for P.C.
   PSTRESS=    0.0 pullay stress

  Mass of Ions in am
   POMASS =  12.01 16.00
  Ionic Valenz
   ZVAL   =   4.00  6.00
  Atomic Wigner-Seitz radii
   RWIGS  =  -1.00 -1.00
  virtual crystal weights 
   VCA    =   1.00  1.00
   NELECT =     206.0000    total number of electrons
   NUPDOWN=      -1.0000    fix difference up-down

 DOS related values:
   EMIN   =  10.00;   EMAX   =-10.00  energy-range for DOS
   EFERMI =   0.00
   ISMEAR =     0;   SIGMA  =   0.05  broadening in eV -4-tet -1-fermi 0-gaus

 Electronic relaxation 2 (details)
   IALGO  =     68    algorithm
   LDIAG  =      T    sub-space diagonalisation (order eigenvalues)
   LSUBROT=      F    optimize rotation matrix (better conditioning)
   TURBO    =      0    0=normal 1=particle mesh
   IRESTART =      0    0=no restart 2=restart with 2 vectors
   NREBOOT  =      0    no. of reboots
   NMIN     =      0    reboot dimension
   EREF     =   0.00    reference energy to select bands
   IMIX   =      4    mixing-type and parameters
     AMIX     =   0.40;   BMIX     =  1.00
     AMIX_MAG =   1.60;   BMIX_MAG =  1.00
     AMIN     =   0.10
     WC   =   100.;   INIMIX=   1;  MIXPRE=   1;  MAXMIX= -45

 Intra band minimization:
   WEIMIN = 0.0000     energy-eigenvalue tresh-hold
   EBREAK =  0.19E-07  absolut break condition
   DEPER  =   0.30     relativ break condition  

   TIME   =   0.40     timestep for ELM

  volume/ion in A,a.u.               =      51.38       346.73
  Fermi-wavevector in a.u.,A,eV,Ry     =   0.701305  1.325274  6.691736  0.491829
  Thomas-Fermi vector in A             =   1.785695
 
 Write flags
   LWAVE        =      F    write WAVECAR
   LDOWNSAMPLE  =      F    k-point downsampling of WAVECAR
   LCHARG       =      F    write CHGCAR
   LVTOT        =      F    write LOCPOT, total local potential
   LVHAR        =      F    write LOCPOT, Hartree potential only
   LELF         =      F    write electronic localiz. function (ELF)
   LORBIT       =      0    0 simple, 1 ext, 2 COOP (PROOUT), +10 PAW based schemes


 Dipole corrections
   LMONO  =      F    monopole corrections only (constant potential shift)
   LDIPOL =      F    correct potential (dipole corrections)
   IDIPOL =      0    1-x, 2-y, 3-z, 4-all directions 
   EPSILON=  1.0000000 bulk dielectric constant

 Exchange correlation treatment:
   GGA     =    --    GGA type
   LEXCH   =     8    internal setting for exchange type
   VOSKOWN=      0    Vosko Wilk Nusair interpolation
   LHFCALC =     F    Hartree Fock is set to
   LHFONE  =     F    Hartree Fock one center treatment
   AEXX    =    0.0000 exact exchange contribution

 Linear response parameters
   LEPSILON=     F    determine dielectric tensor
   LRPA    =     F    only Hartree local field effects (RPA)
   LNABLA  =     F    use nabla operator in PAW spheres
   LVEL    =     F    velocity operator in full k-point grid
   LINTERFAST=   F  fast interpolation
   KINTER  =     0    interpolate to denser k-point grid
   CSHIFT  =0.1000    complex shift for real part using Kramers Kronig
   OMEGAMAX=  -1.0    maximum frequency
   DEG_THRESHOLD= 0.2000000E-02 threshold for treating states as degnerate
   RTIME   =   -0.100 relaxation time in fs
  (WPLASMAI=    0.000 imaginary part of plasma frequency in eV, 0.658/RTIME)
   DFIELD  = 0.0000000 0.0000000 0.0000000 field for delta impulse in time
 
 Orbital magnetization related:
   ORBITALMAG=     F  switch on orbital magnetization
   LCHIMAG   =     F  perturbation theory with respect to B field
   DQ        =  0.001000  dq finite difference perturbation B field
   LLRAUG    =     F  two centre corrections for induced B field



--------------------------------------------------------------------------------------------------------


 Static calculation
 charge density and potential will be updated during run
 non-spin polarized calculation
 RMM-DIIS sequential band-by-band and
  variant of blocked Davidson during initial phase
 perform sub-space diagonalisation
    before iterative eigenvector-optimisation
 modified Broyden-mixing scheme, WC =      100.0
 initial mixing is a Kerker type mixing with AMIX =  0.4000 and BMIX =      1.0000
 Hartree-type preconditioning will be used
 using additional bands           29
 reciprocal scheme for non local part
 use partial core corrections
 calculate Harris-corrections to forces 
   (improved forces if not selfconsistent)
 use gradient corrections 
 use of overlap-Matrix (Vanderbilt PP)
 Gauss-broadening in eV      SIGMA  =   0.05


--------------------------------------------------------------------------------------------------------


  energy-cutoff  :      400.00
  volume of cell :     2620.42
      direct lattice vectors                 reciprocal lattice vectors
    12.300000191  0.000000000  0.000000000     0.081300812 -0.046939053  0.000000000
     6.150000804 10.652112223  0.000000000     0.000000000  0.093878095  0.000000000
     0.000000000  0.000000000 20.000000000     0.000000000  0.000000000  0.050000000

  length of vectors
    12.300000191 12.300000191 20.000000000     0.093878095  0.093878095  0.050000000


 
 old parameters found on file WAVECAR:
  energy-cutoff  :      400.00
  volume of cell :     2620.42
      direct lattice vectors                 reciprocal lattice vectors
    12.300000191  0.000000000  0.000000000     0.081300812 -0.046939053  0.000000000
     6.150000804 10.652112223  0.000000000     0.000000000  0.093878095  0.000000000
     0.000000000  0.000000000 20.000000000     0.000000000  0.000000000  0.050000000

  length of vectors

 
 k-points in units of 2pi/SCALE and weight: K-POINTS                                
   0.00000000  0.00000000  0.00000000       0.111
   0.02710027 -0.01564635  0.00000000       0.222
   0.00000000  0.03129270  0.00000000       0.222
   0.02710027  0.01564635  0.00000000       0.222
  -0.02710027  0.04693905  0.00000000       0.222
 
 k-points in reciprocal lattice and weights: K-POINTS                                
   0.00000000  0.00000000  0.00000000       0.111
   0.33333333  0.00000000  0.00000000       0.222
   0.00000000  0.33333333  0.00000000       0.222
   0.33333333  0.33333333  0.00000000       0.222
  -0.33333333  0.33333333  0.00000000       0.222
 
 position of ions in fractional coordinates (direct lattice) 
   0.00000000  0.00000000  0.41799748
   0.20000000  0.00000000  0.41799748
   0.40000000  0.00000000  0.41799748
   0.60000000  0.99918699  0.41799748
   0.80000000  0.00000000  0.41799748
   0.00000000  0.20000000  0.41799748
   0.20000000  0.20000000  0.41799748
   0.40000000  0.20000000  0.41799748
   0.60000000  0.20000000  0.41799748
   0.80000000  0.20000000  0.41799748
   0.00000000  0.40000000  0.41799748
   0.20000000  0.40000000  0.41799748
   0.40000000  0.40000000  0.41799748
   0.60000000  0.40000000  0.41799748
   0.80000000  0.40000000  0.41799748
   0.00000000  0.60000000  0.41799748
   0.20000000  0.60000000  0.41799748
   0.40000000  0.60000000  0.41799748
   0.60000000  0.60000000  0.41799748
   0.80000000  0.60000000  0.41799748
   0.00000000  0.80000000  0.41799748
   0.20000000  0.80000000  0.41799748
   0.40000000  0.80000000  0.41799748
   0.60000000  0.80000000  0.41799748
   0.80000000  0.80000000  0.41799748
   0.06666667  0.06666660  0.41800609
   0.26666667  0.06666660  0.41800609
   0.46666667  0.06666660  0.41800609
   0.66666667  0.06666660  0.41800609
   0.86666667  0.06666660  0.41800609
   0.06666667  0.26666660  0.41800609
   0.26666667  0.26666660  0.41800609
   0.46666667  0.26666660  0.41800609
   0.66666667  0.26666660  0.41800609
   0.86666667  0.26666660  0.41800609
   0.06666667  0.46666660  0.41800609
   0.26666667  0.46666660  0.41800609
   0.46666667  0.46666660  0.41800609
   0.66666667  0.46666660  0.41800609
   0.86666667  0.46666660  0.41800609
   0.06666667  0.66666660  0.41800609
   0.26666667  0.66666660  0.41800609
   0.46666667  0.66666660  0.41800609
   0.66666667  0.66666660  0.41800609
   0.86666667  0.66666660  0.41800609
   0.06666667  0.86666660  0.41800609
   0.26666667  0.86666660  0.41800609
   0.46666667  0.86666660  0.41800609
   0.66666667  0.86666660  0.41800609
   0.86666667  0.86666660  0.41800609
   0.40000000  0.40000000  0.46800609
 
 position of ions in cartesian coordinates  (Angst):
   0.00000000  0.00000000  8.35994958
   2.46000004  0.00000000  8.35994958
   4.92000008  0.00000000  8.35994958
  13.52500092 10.64345197  8.35994958
   9.84000015  0.00000000  8.35994958
   1.23000016  2.13042244  8.35994958
   3.69000020  2.13042244  8.35994958
   6.15000024  2.13042244  8.35994958
   8.61000028  2.13042244  8.35994958
  11.07000031  2.13042244  8.35994958
   2.46000032  4.26084489  8.35994958
   4.92000036  4.26084489  8.35994958
   7.38000040  4.26084489  8.35994958
   9.84000044  4.26084489  8.35994958
  12.30000047  4.26084489  8.35994958
   3.69000048  6.39126733  8.35994958
   6.15000052  6.39126733  8.35994958
   8.61000056  6.39126733  8.35994958
  11.07000060  6.39126733  8.35994958
  13.53000064  6.39126733  8.35994958
   4.92000064  8.52168978  8.35994958
   7.38000068  8.52168978  8.35994958
   9.84000072  8.52168978  8.35994958
  12.30000076  8.52168978  8.35994958
  14.76000080  8.52168978  8.35994958
   1.22999970  0.71014014  8.36012184
   3.68999974  0.71014014  8.36012184
   6.14999977  0.71014014  8.36012184
   8.60999981  0.71014014  8.36012184
  11.06999985  0.71014014  8.36012184
   2.45999986  2.84056258  8.36012184
   4.91999990  2.84056258  8.36012184
   7.37999994  2.84056258  8.36012184
   9.83999997  2.84056258  8.36012184
  12.30000001  2.84056258  8.36012184
   3.69000002  4.97098503  8.36012184
   6.15000006  4.97098503  8.36012184
   8.61000010  4.97098503  8.36012184
  11.07000013  4.97098503  8.36012184
  13.53000017  4.97098503  8.36012184
   4.92000018  7.10140747  8.36012184
   7.38000022  7.10140747  8.36012184
   9.84000026  7.10140747  8.36012184
  12.30000030  7.10140747  8.36012184
  14.76000033  7.10140747  8.36012184
   6.15000034  9.23182991  8.36012184
   8.61000038  9.23182991  8.36012184
  11.07000042  9.23182991  8.36012184
  13.53000046  9.23182991  8.36012184
  15.99000049  9.23182991  8.36012184
   7.38000040  4.26084489  9.36012184
 


--------------------------------------------------------------------------------------------------------


 k-point  1 :   0.0000 0.0000 0.0000  plane waves:   47639
 k-point  2 :   0.3333 0.0000 0.0000  plane waves:   47601
 k-point  3 :   0.0000 0.3333 0.0000  plane waves:   47601
 k-point  4 :   0.3333 0.3333 0.0000  plane waves:   47601
 k-point  5 :  -0.3333 0.3333 0.0000  plane waves:   47598

 maximum and minimum number of plane-waves per node :      5975     5928

 maximum number of plane-waves:     47639
 maximum index in each direction: 
   IXMAX=   20   IYMAX=   20   IZMAX=   32
   IXMIN=  -20   IYMIN=  -20   IZMIN=  -32


 parallel 3D FFT for wavefunctions:
    minimum data exchange during FFTs selected (reduces bandwidth)
 parallel 3D FFT for charge:
    minimum data exchange during FFTs selected (reduces bandwidth)


 total amount of memory used by VASP MPI-rank0    90113. kBytes
=======================================================================

   base      :      30000. kBytes
   nonl-proj :       8674. kBytes
   fftplans  :      26248. kBytes
   grid      :      14579. kBytes
   one-center:         21. kBytes
   wavefun   :      10591. kBytes
 
     INWAV:  cpu time    0.8476: real time    0.8482
 Broyden mixing: mesh for mixing (old mesh)
   NGX = 41   NGY = 41   NGZ = 65
  (NGX  =160   NGY  =160   NGZ  =280)
  gives a total of 109265 points

 initial charge density was supplied:
 number of electron     206.0000000 magnetization 
 keeping initial charge density in first step


--------------------------------------------------------------------------------------------------------


 Maximum index for augmentation-charges         1119 (set IRDMAX)


--------------------------------------------------------------------------------------------------------


 First call to EWALD:  gamma=   0.129
 Maximum number of real-space cells 3x 3x 2
 Maximum number of reciprocal cells 3x 3x 4

    FEWALD:  cpu time    0.0022: real time    0.0035


--------------------------------------- Iteration      1(   1)  ---------------------------------------


    POTLOK:  cpu time    0.1057: real time    0.1069
    SETDIJ:  cpu time    0.0913: real time    0.0929
     EDDAV:  cpu time    4.1061: real time    4.1092
       DOS:  cpu time    0.0005: real time    0.0005
    CHARGE:  cpu time    0.3943: real time    0.3944
    MIXING:  cpu time    0.0053: real time    0.0054
    --------------------------------------------
      LOOP:  cpu time    4.7032: real time    4.7094

 eigenvalue-minimisations  :  1356
 total energy-change (2. order) :-0.4532951E+03  (-0.2841345E+02)
 number of electron     206.0000000 magnetization 
 augmentation part        5.5092556 magnetization 

 Broyden mixing:
  rms(total) = 0.50006E-01    rms(broyden)= 0.49976E-01
  rms(prec ) = 0.51564E-01
  weight for this iteration     100.00

 Free energy of the ion-electron system (eV)
  ---------------------------------------------------
  alpha Z        PSCENC =        82.54348252
  Ewald energy   TEWEN  =     34516.43805038
  -Hartree energ DENC   =    -41034.74276430
  -exchange      EXHF   =         0.00000000
  -V(xc)+E(xc)   XCENC  =       721.38015513
  PAW double counting   =     22781.19595426   -22817.52509957
  entropy T*S    EENTRO =        -0.00051605
  eigenvalues    EBANDS =     -2491.20873300
  atomic energy  EATOM  =      7788.62438962
  Solvation  Ediel_sol  =         0.00000000
  ---------------------------------------------------
  free energy    TOTEN  =      -453.29508101 eV

  energy without entropy =     -453.29456496  energy(sigma->0) =     -453.29482299


--------------------------------------------------------------------------------------------------------




--------------------------------------- Iteration      1(   2)  ---------------------------------------


    POTLOK:  cpu time    0.0973: real time    0.0983
    SETDIJ:  cpu time    0.0801: real time    0.0816
    EDDIAG:  cpu time    0.8805: real time    0.8811
  RMM-DIIS:  cpu time    3.7141: real time    3.7160
    ORTHCH:  cpu time    0.0413: real time    0.0414
       DOS:  cpu time    0.0004: real time    0.0004
    CHARGE:  cpu time    0.3918: real time    0.3918
    MIXING:  cpu time    0.0052: real time    0.0053
    --------------------------------------------
      LOOP:  cpu time    5.2106: real time    5.2158

 eigenvalue-minimisations  :  1417
 total energy-change (2. order) :-0.9878378E+00  (-0.9903482E+00)
 number of electron     206.0000000 magnetization 
 augmentation part        5.5410396 magnetization 

 Broyden mixing:
  rms(total) = 0.21016E-01    rms(broyden)= 0.20958E-01
  rms(prec ) = 0.22472E-01
  weight for this iteration     100.00

 eigenvalues of (default mixing * dielectric matrix)
  average eigenvalue GAMMA=   0.7357
  0.7357

 Free energy of the ion-electron system (eV)
  ---------------------------------------------------
  alpha Z        PSCENC =        82.54348252
  Ewald energy   TEWEN  =     34516.43805038
  -Hartree energ DENC   =    -41032.19049429
  -exchange      EXHF   =         0.00000000
  -V(xc)+E(xc)   XCENC  =       721.27213769
  PAW double counting   =     22842.09683701   -22878.37442074
  entropy T*S    EENTRO =        -0.00009448
  eigenvalues    EBANDS =     -2494.69280657
  atomic energy  EATOM  =      7788.62438962
  Solvation  Ediel_sol  =         0.00000000
  ---------------------------------------------------
  free energy    TOTEN  =      -454.28291886 eV

  energy without entropy =     -454.28282438  energy(sigma->0) =     -454.28287162


--------------------------------------------------------------------------------------------------------




--------------------------------------- Iteration      1(   3)  ---------------------------------------


    POTLOK:  cpu time    0.0987: real time    0.1013
    SETDIJ:  cpu time    0.0794: real time    0.0810
    EDDIAG:  cpu time    0.8846: real time    0.8859
  RMM-DIIS:  cpu time    4.1512: real time    4.1553
    ORTHCH:  cpu time    0.0411: real time    0.0416
       DOS:  cpu time    0.0004: real time    0.0004
    CHARGE:  cpu time    0.3916: real time    0.3916
    MIXING:  cpu time    0.0043: real time    0.0043
    --------------------------------------------
      LOOP:  cpu time    5.6513: real time    5.6614

 eigenvalue-minimisations  :  1581
 total energy-change (2. order) :-0.5219266E-01  (-0.5849785E-01)
 number of electron     206.0000000 magnetization 
 augmentation part        5.5433991 magnetization 

 Broyden mixing:
  rms(total) = 0.15437E-01    rms(broyden)= 0.15422E-01
  rms(prec ) = 0.15993E-01
  weight for this iteration     100.00

 eigenvalues of (default mixing * dielectric matrix)
  average eigenvalue GAMMA=   0.6732
  0.6732  0.6732

 Free energy of the ion-electron system (eV)
  ---------------------------------------------------
  alpha Z        PSCENC =        82.54348252
  Ewald energy   TEWEN  =     34516.43805038
  -Hartree energ DENC   =    -41032.89909392
  -exchange      EXHF   =         0.00000000
  -V(xc)+E(xc)   XCENC  =       721.30508179
  PAW double counting   =     22830.96676739   -22867.25927907
  entropy T*S    EENTRO =        -0.00012652
  eigenvalues    EBANDS =     -2494.05438371
  atomic energy  EATOM  =      7788.62438962
  Solvation  Ediel_sol  =         0.00000000
  ---------------------------------------------------
  free energy    TOTEN  =      -454.33511153 eV

  energy without entropy =     -454.33498501  energy(sigma->0) =     -454.33504827


--------------------------------------------------------------------------------------------------------




--------------------------------------- Iteration      1(   4)  ---------------------------------------


    POTLOK:  cpu time    0.0971: real time    0.0988
    SETDIJ:  cpu time    0.0786: real time    0.0800
    EDDIAG:  cpu time    0.8829: real time    0.8834
  RMM-DIIS:  cpu time    4.1379: real time    4.1417
    ORTHCH:  cpu time    0.0409: real time    0.0410
       DOS:  cpu time    0.0004: real time    0.0004
    CHARGE:  cpu time    0.3905: real time    0.3909
    MIXING:  cpu time    0.0050: real time    0.0050
    --------------------------------------------
      LOOP:  cpu time    5.6331: real time    5.6410

 eigenvalue-minimisations  :  1576
 total energy-change (2. order) :-0.3926393E-02  (-0.4116109E-02)
 number of electron     206.0000000 magnetization 
 augmentation part        5.5459527 magnetization 

 Broyden mixing:
  rms(total) = 0.15290E-01    rms(broyden)= 0.15288E-01
  rms(prec ) = 0.15767E-01
  weight for this iteration     100.00

 eigenvalues of (default mixing * dielectric matrix)
  average eigenvalue GAMMA=   0.9750
  1.1871  1.1871  0.5507

 Free energy of the ion-electron system (eV)
  ---------------------------------------------------
  alpha Z        PSCENC =        82.54348252
  Ewald energy   TEWEN  =     34516.43805038
  -Hartree energ DENC   =    -41033.23222661
  -exchange      EXHF   =         0.00000000
  -V(xc)+E(xc)   XCENC  =       721.32005705
  PAW double counting   =     22822.33104634   -22858.63109416
  entropy T*S    EENTRO =        -0.00010949
  eigenvalues    EBANDS =     -2493.73263356
  atomic energy  EATOM  =      7788.62438962
  Solvation  Ediel_sol  =         0.00000000
  ---------------------------------------------------
  free energy    TOTEN  =      -454.33903792 eV

  energy without entropy =     -454.33892843  energy(sigma->0) =     -454.33898317


--------------------------------------------------------------------------------------------------------




--------------------------------------- Iteration      1(   5)  ---------------------------------------


    POTLOK:  cpu time    0.1048: real time    0.1051
    SETDIJ:  cpu time    0.0786: real time    0.0786
    EDDIAG:  cpu time    0.8786: real time    0.8792
  RMM-DIIS:  cpu time    3.9667: real time    3.9727
    ORTHCH:  cpu time    0.0410: real time    0.0411
       DOS:  cpu time    0.0003: real time    0.0003
    CHARGE:  cpu time    0.3904: real time    0.3905
    MIXING:  cpu time    0.0054: real time    0.0054
    --------------------------------------------
      LOOP:  cpu time    5.4658: real time    5.4729

 eigenvalue-minimisations  :  1515
 total energy-change (2. order) :-0.1051048E-03  (-0.3164294E-03)
 number of electron     206.0000000 magnetization 
 augmentation part        5.5449571 magnetization 

 Broyden mixing:
  rms(total) = 0.63223E-02    rms(broyden)= 0.63215E-02
  rms(prec ) = 0.64927E-02
  weight for this iteration     100.00

 eigenvalues of (default mixing * dielectric matrix)
  average eigenvalue GAMMA=   1.1596
  1.5030  1.5030  0.5677  1.0647

 Free energy of the ion-electron system (eV)
  ---------------------------------------------------
  alpha Z        PSCENC =        82.54348252
  Ewald energy   TEWEN  =     34516.43805038
  -Hartree energ DENC   =    -41034.12429643
  -exchange      EXHF   =         0.00000000
  -V(xc)+E(xc)   XCENC  =       721.35737562
  PAW double counting   =     22795.50589882   -22831.82529219
  entropy T*S    EENTRO =        -0.00011310
  eigenvalues    EBANDS =     -2492.85863826
  atomic energy  EATOM  =      7788.62438962
  Solvation  Ediel_sol  =         0.00000000
  ---------------------------------------------------
  free energy    TOTEN  =      -454.33914302 eV

  energy without entropy =     -454.33902992  energy(sigma->0) =     -454.33908647


--------------------------------------------------------------------------------------------------------




--------------------------------------- Iteration      1(   6)  ---------------------------------------


    POTLOK:  cpu time    0.0982: real time    0.1003
    SETDIJ:  cpu time    0.0791: real time    0.0805
    EDDIAG:  cpu time    0.8797: real time    0.8802
  RMM-DIIS:  cpu time    3.9353: real time    3.9837
    ORTHCH:  cpu time    0.0409: real time    0.0409
       DOS:  cpu time    0.0004: real time    0.0004
    CHARGE:  cpu time    0.3907: real time    0.3913
    MIXING:  cpu time    0.0046: real time    0.0046
    --------------------------------------------
      LOOP:  cpu time    5.4289: real time    5.4819

 eigenvalue-minimisations  :  1525
 total energy-change (2. order) :-0.2450567E-04  (-0.5166987E-04)
 number of electron     206.0000000 magnetization 
 augmentation part        5.5442792 magnetization 

 Broyden mixing:
  rms(total) = 0.16950E-02    rms(broyden)= 0.16932E-02
  rms(prec ) = 0.17556E-02
  weight for this iteration     100.00

 eigenvalues of (default mixing * dielectric matrix)
  average eigenvalue GAMMA=   1.2119
  2.1117  1.2144  1.2144  0.9516  0.5675

 Free energy of the ion-electron system (eV)
  ---------------------------------------------------
  alpha Z        PSCENC =        82.54348252
  Ewald energy   TEWEN  =     34516.43805038
  -Hartree energ DENC   =    -41034.83233850
  -exchange      EXHF   =         0.00000000
  -V(xc)+E(xc)   XCENC  =       721.38689768
  PAW double counting   =     22774.56829813   -22810.90199184
  entropy T*S    EENTRO =        -0.00011475
  eigenvalues    EBANDS =     -2492.16584078
  atomic energy  EATOM  =      7788.62438962
  Solvation  Ediel_sol  =         0.00000000
  ---------------------------------------------------
  free energy    TOTEN  =      -454.33916753 eV

  energy without entropy =     -454.33905278  energy(sigma->0) =     -454.33911015


--------------------------------------------------------------------------------------------------------




--------------------------------------- Iteration      1(   7)  ---------------------------------------


    POTLOK:  cpu time    0.0975: real time    0.0977
    SETDIJ:  cpu time    0.0791: real time    0.0792
    EDDIAG:  cpu time    0.8940: real time    0.8949
  RMM-DIIS:  cpu time    2.9402: real time    2.9431
    ORTHCH:  cpu time    0.0412: real time    0.0412
       DOS:  cpu time    0.0003: real time    0.0003
    --------------------------------------------
      LOOP:  cpu time    4.0524: real time    4.0565

 eigenvalue-minimisations  :  1038
 total energy-change (2. order) :-0.6889737E-05  (-0.2170846E-05)
 number of electron     206.0000000 magnetization 
 augmentation part        5.5442792 magnetization 

 Free energy of the ion-electron system (eV)
  ---------------------------------------------------
  alpha Z        PSCENC =        82.54348252
  Ewald energy   TEWEN  =     34516.43805038
  -Hartree energ DENC   =    -41034.81271391
  -exchange      EXHF   =         0.00000000
  -V(xc)+E(xc)   XCENC  =       721.38561647
  PAW double counting   =     22776.88119467   -22813.21352812
  entropy T*S    EENTRO =        -0.00011559
  eigenvalues    EBANDS =     -2492.18555046
  atomic energy  EATOM  =      7788.62438962
  Solvation  Ediel_sol  =         0.00000000
  ---------------------------------------------------
  free energy    TOTEN  =      -454.33917442 eV

  energy without entropy =     -454.33905882  energy(sigma->0) =     -454.33911662


--------------------------------------------------------------------------------------------------------




 average (electrostatic) potential at core
  the test charge radii are     0.6991  0.7215
  (the norm of the test charge is              1.0000)
       1 -58.2593       2 -58.2585       3 -58.1994       4 -58.0582       5 -58.2010
       6 -58.2595       7 -58.2747       8 -58.1359       9 -58.1369      10 -58.2754
      11 -58.2023      12 -58.1326      13 -60.6866      14 -58.1338      15 -58.2032
      16 -58.0575      17 -58.1313      18 -58.1324      19 -58.0575      20 -58.0649
      21 -58.2028      22 -58.2749      23 -58.2024      24 -58.0629      25 -58.0656
      26 -58.3809      27 -58.2897      28 -58.2209      29 -58.2243      30 -58.2911
      31 -58.2917      32 -58.3153      33 -58.8146      34 -58.3152      35 -58.2922
      36 -58.2208      37 -58.8098      38 -58.8112      39 -58.2214      40 -58.2224
      41 -58.2207      42 -58.3136      43 -58.2202      44 -58.1625      45 -58.1641
      46 -58.2924      47 -58.2911      48 -58.2212      49 -58.1608      50 -58.2223
      51 -81.5765
 
 
 
 E-fermi :  -3.0173     XC(G=0):  -2.2108     alpha+bet : -1.9409


 k-point     1 :       0.0000    0.0000    0.0000
  band No.  band energies     occupation 
      1     -31.7414      2.00000
      2     -22.2708      2.00000
      3     -21.5030      2.00000
      4     -21.5004      2.00000
      5     -21.3971      2.00000
      6     -21.3937      2.00000
      7     -21.3924      2.00000
      8     -20.8742      2.00000
      9     -19.8807      2.00000
     10     -19.8763      2.00000
     11     -19.5494      2.00000
     12     -19.5470      2.00000
     13     -19.5364      2.00000
     14     -19.1915      2.00000
     15     -18.9015      2.00000
     16     -18.8991      2.00000
     17     -18.6496      2.00000
     18     -18.6425      2.00000
     19     -18.6382      2.00000
     20     -17.8829      2.00000
     21     -17.0214      2.00000
     22     -17.0194      2.00000
     23     -16.4763      2.00000
     24     -16.4639      2.00000
     25     -16.4557      2.00000
     26     -16.0492      2.00000
     27     -15.9997      2.00000
     28     -15.9966      2.00000
     29     -15.4964      2.00000
     30     -15.4941      2.00000
     31     -15.4894      2.00000
     32     -15.0924      2.00000
     33     -14.6315      2.00000
     34     -14.6254      2.00000
     35     -14.1515      2.00000
     36     -14.1501      2.00000
     37     -14.1440      2.00000
     38     -13.9641      2.00000
     39     -12.9921      2.00000
     40     -12.9874      2.00000
     41     -12.0341      2.00000
     42     -11.7648      2.00000
     43     -11.7637      2.00000
     44     -11.7564      2.00000
     45     -11.6925      2.00000
     46     -11.6901      2.00000
     47     -11.6542      2.00000
     48     -11.6502      2.00000
     49     -11.6494      2.00000
     50     -11.6463      2.00000
     51     -10.8017      2.00000
     52     -10.7966      2.00000
     53     -10.4369      2.00000
     54     -10.3344      2.00000
     55     -10.2885      2.00000
     56     -10.2860      2.00000
     57     -10.2698      2.00000
     58     -10.0783      2.00000
     59      -9.6870      2.00000
     60      -9.6852      2.00000
     61      -9.3254      2.00000
     62      -9.3250      2.00000
     63      -9.3021      2.00000
     64      -9.2794      2.00000
     65      -9.2778      2.00000
     66      -9.0444      2.00000
     67      -9.0066      2.00000
     68      -9.0045      2.00000
     69      -8.9487      2.00000
     70      -8.9422      2.00000
     71      -8.9386      2.00000
     72      -8.9293      2.00000
     73      -8.9198      2.00000
     74      -8.9140      2.00000
     75      -8.8959      2.00000
     76      -8.4377      2.00000
     77      -7.8086      2.00000
     78      -7.8002      2.00000
     79      -7.3300      2.00000
     80      -7.3246      2.00000
     81      -7.3102      2.00000
     82      -7.3050      2.00000
     83      -7.2996      2.00000
     84      -7.2877      2.00000
     85      -7.1614      2.00000
     86      -7.1607      2.00000
     87      -7.1529      2.00000
     88      -6.7520      2.00000
     89      -6.5075      2.00000
     90      -6.5052      2.00000
     91      -6.2627      2.00000
     92      -6.2503      2.00000
     93      -6.2459      2.00000
     94      -5.9278      2.00000
     95      -5.9154      2.00000
     96      -5.1953      2.00000
     97      -4.7637      2.00000
     98      -4.7614      2.00000
     99      -4.2719      2.00000
    100      -4.2698      2.00000
    101      -4.2652      2.00000
    102      -3.2159      2.00000
    103      -3.2147      2.00000
    104      -2.9164      0.00434
    105      -1.4612      0.00000
    106      -1.4568      0.00000
    107      -1.4493      0.00000
    108      -0.9956      0.00000
    109      -0.9907      0.00000
    110      -0.5429      0.00000
    111       0.4096      0.00000
    112       0.4216      0.00000
    113       0.4264      0.00000
    114       0.5617      0.00000
    115       0.8417      0.00000
    116       0.8457      0.00000
    117       1.2925      0.00000
    118       1.3388      0.00000
    119       1.6812      0.00000
    120       1.8017      0.00000
    121       1.8023      0.00000
    122       1.8026      0.00000
    123       1.8262      0.00000
    124       1.8265      0.00000
    125       2.0300      0.00000
    126       2.1758      0.00000
    127       2.1797      0.00000
    128       2.1851      0.00000
    129       2.3471      0.00000
    130       2.3475      0.00000
    131       2.6160      0.00000
    132       2.6419      0.00000

 k-point     2 :       0.3333    0.0000    0.0000
  band No.  band energies     occupation 
      1     -31.7414      2.00000
      2     -22.1887      2.00000
      3     -21.8695      2.00000
      4     -21.6598      2.00000
      5     -21.4545      2.00000
      6     -21.0333      2.00000
      7     -20.8986      2.00000
      8     -20.7272      2.00000
      9     -20.4185      2.00000
     10     -20.1624      2.00000
     11     -19.7878      2.00000
     12     -19.7022      2.00000
     13     -19.3240      2.00000
     14     -19.2449      2.00000
     15     -19.0596      2.00000
     16     -18.5900      2.00000
     17     -18.4567      2.00000
     18     -18.1246      2.00000
     19     -18.0606      2.00000
     20     -17.5914      2.00000
     21     -17.4946      2.00000
     22     -17.2991      2.00000
     23     -17.2804      2.00000
     24     -16.8512      2.00000
     25     -16.6587      2.00000
     26     -16.1757      2.00000
     27     -15.9799      2.00000
     28     -15.8474      2.00000
     29     -15.2985      2.00000
     30     -15.1706      2.00000
     31     -15.1306      2.00000
     32     -14.8856      2.00000
     33     -14.7793      2.00000
     34     -14.4782      2.00000
     35     -14.4560      2.00000
     36     -13.7675      2.00000
     37     -13.7593      2.00000
     38     -13.1982      2.00000
     39     -13.0872      2.00000
     40     -12.9352      2.00000
     41     -12.9036      2.00000
     42     -12.5833      2.00000
     43     -12.5520      2.00000
     44     -12.3909      2.00000
     45     -12.0214      2.00000
     46     -11.6614      2.00000
     47     -11.4487      2.00000
     48     -11.2957      2.00000
     49     -11.1232      2.00000
     50     -10.9121      2.00000
     51     -10.8507      2.00000
     52     -10.5854      2.00000
     53     -10.5336      2.00000
     54     -10.2831      2.00000
     55     -10.2367      2.00000
     56     -10.1597      2.00000
     57     -10.0472      2.00000
     58      -9.8535      2.00000
     59      -9.8193      2.00000
     60      -9.6555      2.00000
     61      -9.6062      2.00000
     62      -9.5614      2.00000
     63      -9.5272      2.00000
     64      -9.3676      2.00000
     65      -9.3391      2.00000
     66      -9.2568      2.00000
     67      -9.1748      2.00000
     68      -9.1018      2.00000
     69      -9.0830      2.00000
     70      -8.8640      2.00000
     71      -8.7133      2.00000
     72      -8.6661      2.00000
     73      -8.5049      2.00000
     74      -8.4011      2.00000
     75      -8.2892      2.00000
     76      -8.1331      2.00000
     77      -8.0931      2.00000
     78      -8.0664      2.00000
     79      -7.9716      2.00000
     80      -7.8075      2.00000
     81      -7.6187      2.00000
     82      -7.3609      2.00000
     83      -7.3392      2.00000
     84      -7.2672      2.00000
     85      -7.1967      2.00000
     86      -6.9177      2.00000
     87      -6.8734      2.00000
     88      -6.6925      2.00000
     89      -6.5899      2.00000
     90      -6.3473      2.00000
     91      -6.1836      2.00000
     92      -6.0721      2.00000
     93      -5.9199      2.00000
     94      -5.7409      2.00000
     95      -5.6397      2.00000
     96      -5.3226      2.00000
     97      -5.1138      2.00000
     98      -4.9706      2.00000
     99      -4.9236      2.00000
    100      -4.2704      2.00000
    101      -4.1696      2.00000
    102      -3.3368      2.00000
    103      -3.1367      1.99927
    104      -2.8049      0.00000
    105      -1.5921      0.00000
    106      -1.4206      0.00000
    107      -0.8387      0.00000
    108      -0.8142      0.00000
    109      -0.7063      0.00000
    110      -0.6703      0.00000
    111      -0.1293      0.00000
    112      -0.0057      0.00000
    113       0.2894      0.00000
    114       0.7040      0.00000
    115       0.7263      0.00000
    116       1.0991      0.00000
    117       1.1746      0.00000
    118       1.3664      0.00000
    119       1.4621      0.00000
    120       1.5373      0.00000
    121       1.5684      0.00000
    122       1.6354      0.00000
    123       1.8307      0.00000
    124       1.9113      0.00000
    125       2.0442      0.00000
    126       2.2221      0.00000
    127       2.2714      0.00000
    128       2.3277      0.00000
    129       2.3394      0.00000
    130       2.3955      0.00000
    131       2.4566      0.00000
    132       2.7965      0.00000

 k-point     3 :       0.0000    0.3333    0.0000
  band No.  band energies     occupation 
      1     -31.7414      2.00000
      2     -22.1887      2.00000
      3     -21.8691      2.00000
      4     -21.6608      2.00000
      5     -21.4540      2.00000
      6     -21.0341      2.00000
      7     -20.8952      2.00000
      8     -20.7290      2.00000
      9     -20.4195      2.00000
     10     -20.1647      2.00000
     11     -19.7859      2.00000
     12     -19.6986      2.00000
     13     -19.3282      2.00000
     14     -19.2416      2.00000
     15     -19.0616      2.00000
     16     -18.5923      2.00000
     17     -18.4545      2.00000
     18     -18.1201      2.00000
     19     -18.0647      2.00000
     20     -17.5909      2.00000
     21     -17.4970      2.00000
     22     -17.3025      2.00000
     23     -17.2758      2.00000
     24     -16.8493      2.00000
     25     -16.6565      2.00000
     26     -16.1838      2.00000
     27     -15.9786      2.00000
     28     -15.8474      2.00000
     29     -15.2960      2.00000
     30     -15.1683      2.00000
     31     -15.1315      2.00000
     32     -14.8826      2.00000
     33     -14.7798      2.00000
     34     -14.4798      2.00000
     35     -14.4552      2.00000
     36     -13.7698      2.00000
     37     -13.7613      2.00000
     38     -13.1958      2.00000
     39     -13.0877      2.00000
     40     -12.9322      2.00000
     41     -12.9060      2.00000
     42     -12.5828      2.00000
     43     -12.5552      2.00000
     44     -12.3897      2.00000
     45     -12.0226      2.00000
     46     -11.6647      2.00000
     47     -11.4471      2.00000
     48     -11.2916      2.00000
     49     -11.1202      2.00000
     50     -10.9141      2.00000
     51     -10.8459      2.00000
     52     -10.5842      2.00000
     53     -10.5323      2.00000
     54     -10.2857      2.00000
     55     -10.2369      2.00000
     56     -10.1621      2.00000
     57     -10.0529      2.00000
     58      -9.8534      2.00000
     59      -9.8175      2.00000
     60      -9.6533      2.00000
     61      -9.6063      2.00000
     62      -9.5659      2.00000
     63      -9.5263      2.00000
     64      -9.3691      2.00000
     65      -9.3411      2.00000
     66      -9.2632      2.00000
     67      -9.1747      2.00000
     68      -9.0955      2.00000
     69      -9.0818      2.00000
     70      -8.8642      2.00000
     71      -8.7122      2.00000
     72      -8.6632      2.00000
     73      -8.5071      2.00000
     74      -8.3980      2.00000
     75      -8.2881      2.00000
     76      -8.1308      2.00000
     77      -8.0948      2.00000
     78      -8.0596      2.00000
     79      -7.9689      2.00000
     80      -7.8101      2.00000
     81      -7.6272      2.00000
     82      -7.3598      2.00000
     83      -7.3363      2.00000
     84      -7.2713      2.00000
     85      -7.1965      2.00000
     86      -6.9234      2.00000
     87      -6.8720      2.00000
     88      -6.6900      2.00000
     89      -6.5913      2.00000
     90      -6.3517      2.00000
     91      -6.1798      2.00000
     92      -6.0709      2.00000
     93      -5.9198      2.00000
     94      -5.7385      2.00000
     95      -5.6400      2.00000
     96      -5.3226      2.00000
     97      -5.1145      2.00000
     98      -4.9708      2.00000
     99      -4.9220      2.00000
    100      -4.2723      2.00000
    101      -4.1683      2.00000
    102      -3.3391      2.00000
    103      -3.1368      1.99928
    104      -2.8038      0.00000
    105      -1.5904      0.00000
    106      -1.4188      0.00000
    107      -0.8399      0.00000
    108      -0.8186      0.00000
    109      -0.7063      0.00000
    110      -0.6669      0.00000
    111      -0.1310      0.00000
    112      -0.0061      0.00000
    113       0.2885      0.00000
    114       0.7040      0.00000
    115       0.7275      0.00000
    116       1.0984      0.00000
    117       1.1740      0.00000
    118       1.3659      0.00000
    119       1.4631      0.00000
    120       1.5375      0.00000
    121       1.5733      0.00000
    122       1.6399      0.00000
    123       1.8316      0.00000
    124       1.9124      0.00000
    125       2.0416      0.00000
    126       2.2255      0.00000
    127       2.2744      0.00000
    128       2.3354      0.00000
    129       2.4263      0.00000
    130       2.7407      0.00000
    131       3.2540      0.00000
    132       3.6124      0.00000

 k-point     4 :       0.3333    0.3333    0.0000
  band No.  band energies     occupation 
      1     -31.7414      2.00000
      2     -22.1889      2.00000
      3     -21.8689      2.00000
      4     -21.6600      2.00000
      5     -21.4545      2.00000
      6     -21.0339      2.00000
      7     -20.8983      2.00000
      8     -20.7269      2.00000
      9     -20.4202      2.00000
     10     -20.1616      2.00000
     11     -19.7874      2.00000
     12     -19.6990      2.00000
     13     -19.3260      2.00000
     14     -19.2443      2.00000
     15     -19.0608      2.00000
     16     -18.5909      2.00000
     17     -18.4575      2.00000
     18     -18.1232      2.00000
     19     -18.0610      2.00000
     20     -17.5908      2.00000
     21     -17.4968      2.00000
     22     -17.3008      2.00000
     23     -17.2779      2.00000
     24     -16.8492      2.00000
     25     -16.6582      2.00000
     26     -16.1763      2.00000
     27     -15.9757      2.00000
     28     -15.8482      2.00000
     29     -15.3014      2.00000
     30     -15.1713      2.00000
     31     -15.1343      2.00000
     32     -14.8860      2.00000
     33     -14.7806      2.00000
     34     -14.4780      2.00000
     35     -14.4525      2.00000
     36     -13.7671      2.00000
     37     -13.7597      2.00000
     38     -13.1982      2.00000
     39     -13.0874      2.00000
     40     -12.9315      2.00000
     41     -12.9039      2.00000
     42     -12.5846      2.00000
     43     -12.5497      2.00000
     44     -12.3901      2.00000
     45     -12.0230      2.00000
     46     -11.6624      2.00000
     47     -11.4483      2.00000
     48     -11.2964      2.00000
     49     -11.1247      2.00000
     50     -10.9139      2.00000
     51     -10.8508      2.00000
     52     -10.5851      2.00000
     53     -10.5326      2.00000
     54     -10.2843      2.00000
     55     -10.2368      2.00000
     56     -10.1596      2.00000
     57     -10.0464      2.00000
     58      -9.8534      2.00000
     59      -9.8192      2.00000
     60      -9.6554      2.00000
     61      -9.6056      2.00000
     62      -9.5597      2.00000
     63      -9.5268      2.00000
     64      -9.3684      2.00000
     65      -9.3394      2.00000
     66      -9.2558      2.00000
     67      -9.1755      2.00000
     68      -9.0975      2.00000
     69      -9.0843      2.00000
     70      -8.8645      2.00000
     71      -8.7141      2.00000
     72      -8.6659      2.00000
     73      -8.5048      2.00000
     74      -8.4031      2.00000
     75      -8.2926      2.00000
     76      -8.1341      2.00000
     77      -8.0956      2.00000
     78      -8.0670      2.00000
     79      -7.9702      2.00000
     80      -7.8075      2.00000
     81      -7.6192      2.00000
     82      -7.3600      2.00000
     83      -7.3351      2.00000
     84      -7.2641      2.00000
     85      -7.1918      2.00000
     86      -6.9192      2.00000
     87      -6.8741      2.00000
     88      -6.6968      2.00000
     89      -6.5897      2.00000
     90      -6.3427      2.00000
     91      -6.1868      2.00000
     92      -6.0749      2.00000
     93      -5.9208      2.00000
     94      -5.7399      2.00000
     95      -5.6390      2.00000
     96      -5.3233      2.00000
     97      -5.1150      2.00000
     98      -4.9701      2.00000
     99      -4.9239      2.00000
    100      -4.2687      2.00000
    101      -4.1696      2.00000
    102      -3.3366      2.00000
    103      -3.1369      1.99928
    104      -2.8041      0.00000
    105      -1.5924      0.00000
    106      -1.4237      0.00000
    107      -0.8381      0.00000
    108      -0.8156      0.00000
    109      -0.7078      0.00000
    110      -0.6661      0.00000
    111      -0.1291      0.00000
    112      -0.0064      0.00000
    113       0.2897      0.00000
    114       0.7042      0.00000
    115       0.7293      0.00000
    116       1.0994      0.00000
    117       1.1747      0.00000
    118       1.3669      0.00000
    119       1.4640      0.00000
    120       1.5608      0.00000
    121       1.5776      0.00000
    122       1.7492      0.00000
    123       1.8320      0.00000
    124       2.1806      0.00000
    125       2.3353      0.00000
    126       2.3966      0.00000
    127       2.6166      0.00000
    128       2.7880      0.00000
    129       2.8473      0.00000
    130       3.2028      0.00000
    131       3.5956      0.00000
    132       4.1781      0.00000

 k-point     5 :      -0.3333    0.3333    0.0000
  band No.  band energies     occupation 
      1     -31.7415      2.00000
      2     -22.0797      2.00000
      3     -22.0083      2.00000
      4     -21.8004      2.00000
      5     -21.1703      2.00000
      6     -21.1518      2.00000
      7     -20.8666      2.00000
      8     -20.4115      2.00000
      9     -20.3411      2.00000
     10     -20.1706      2.00000
     11     -20.1521      2.00000
     12     -20.1423      2.00000
     13     -19.5683      2.00000
     14     -18.8265      2.00000
     15     -18.6708      2.00000
     16     -18.3716      2.00000
     17     -18.3467      2.00000
     18     -18.3410      2.00000
     19     -17.9281      2.00000
     20     -17.8010      2.00000
     21     -17.5978      2.00000
     22     -17.2664      2.00000
     23     -17.1520      2.00000
     24     -17.1199      2.00000
     25     -16.5434      2.00000
     26     -16.4397      2.00000
     27     -16.2854      2.00000
     28     -15.8053      2.00000
     29     -15.6267      2.00000
     30     -15.1775      2.00000
     31     -14.9699      2.00000
     32     -14.6535      2.00000
     33     -13.9618      2.00000
     34     -13.9382      2.00000
     35     -13.9214      2.00000
     36     -13.8725      2.00000
     37     -13.8602      2.00000
     38     -13.7931      2.00000
     39     -13.6755      2.00000
     40     -13.4943      2.00000
     41     -13.0380      2.00000
     42     -12.4770      2.00000
     43     -12.2522      2.00000
     44     -12.0780      2.00000
     45     -11.8230      2.00000
     46     -11.7721      2.00000
     47     -11.5608      2.00000
     48     -11.5453      2.00000
     49     -11.5212      2.00000
     50     -10.9271      2.00000
     51     -10.8181      2.00000
     52     -10.5300      2.00000
     53     -10.2082      2.00000
     54     -10.2037      2.00000
     55     -10.1898      2.00000
     56     -10.0942      2.00000
     57     -10.0528      2.00000
     58     -10.0227      2.00000
     59      -9.9035      2.00000
     60      -9.7502      2.00000
     61      -9.7481      2.00000
     62      -9.5647      2.00000
     63      -9.4399      2.00000
     64      -9.4080      2.00000
     65      -9.1951      2.00000
     66      -9.0479      2.00000
     67      -9.0323      2.00000
     68      -8.9022      2.00000
     69      -8.8830      2.00000
     70      -8.6869      2.00000
     71      -8.6440      2.00000
     72      -8.6298      2.00000
     73      -8.6244      2.00000
     74      -8.5821      2.00000
     75      -8.3748      2.00000
     76      -8.2518      2.00000
     77      -8.1668      2.00000
     78      -8.0332      2.00000
     79      -7.9853      2.00000
     80      -7.8786      2.00000
     81      -7.8604      2.00000
     82      -7.8537      2.00000
     83      -7.2252      2.00000
     84      -7.1807      2.00000
     85      -7.1288      2.00000
     86      -6.8884      2.00000
     87      -6.7235      2.00000
     88      -6.6094      2.00000
     89      -6.4557      2.00000
     90      -6.2693      2.00000
     91      -6.0988      2.00000
     92      -5.9168      2.00000
     93      -5.9087      2.00000
     94      -5.9014      2.00000
     95      -5.4522      2.00000
     96      -5.4239      2.00000
     97      -5.1208      2.00000
     98      -5.0141      2.00000
     99      -4.9782      2.00000
    100      -4.9618      2.00000
    101      -3.7346      2.00000
    102      -3.4575      2.00000
    103      -3.2810      2.00000
    104      -2.3860      0.00000
    105      -2.2244      0.00000
    106      -0.9273      0.00000
    107      -0.8815      0.00000
    108      -0.8648      0.00000
    109      -0.5415      0.00000
    110      -0.2634      0.00000
    111      -0.2102      0.00000
    112       0.2494      0.00000
    113       0.2564      0.00000
    114       0.2661      0.00000
    115       0.5949      0.00000
    116       0.7924      0.00000
    117       0.9482      0.00000
    118       0.9726      0.00000
    119       1.0610      0.00000
    120       1.7335      0.00000
    121       1.7460      0.00000
    122       1.7655      0.00000
    123       1.8264      0.00000
    124       2.1201      0.00000
    125       2.1233      0.00000
    126       2.1258      0.00000
    127       2.2455      0.00000
    128       2.2477      0.00000
    129       2.3612      0.00000
    130       2.9993      0.00000
    131       3.0132      0.00000
    132       3.0390      0.00000


--------------------------------------------------------------------------------------------------------


 soft charge-density along one line, spin component           1
         0         1         2         3         4         5         6         7         8         9
 total charge-density along one line
 
 pseudopotential strength for first ion, spin component:           1
 10.222  13.593   0.000  -0.000   0.000  -0.000   0.000  -0.000
 13.593  18.076   0.000  -0.000   0.000  -0.000   0.000  -0.001
  0.000   0.000  -4.352  -0.000  -0.000   8.512   0.000   0.000
 -0.000  -0.000  -0.000  -4.344  -0.000   0.000   8.502   0.000
  0.000   0.000  -0.000  -0.000  -4.352   0.000   0.000   8.513
 -0.000  -0.000   8.512   0.000   0.000 -18.786  -0.000  -0.000
  0.000   0.000   0.000   8.502   0.000  -0.000 -18.776  -0.000
 -0.000  -0.001   0.000   0.000   8.513  -0.000  -0.000 -18.787
 total augmentation occupancy for first ion, spin component:           1
  8.358  -3.741   0.001   0.000   0.003   0.000   0.000   0.001
 -3.741   1.730  -0.001  -0.000  -0.003  -0.000   0.000  -0.000
  0.001  -0.001   1.840  -0.000  -0.001   0.174   0.000   0.000
  0.000  -0.000  -0.000   1.223  -0.000   0.000   0.078   0.000
  0.003  -0.003  -0.001  -0.000   1.839   0.000   0.000   0.174
  0.000  -0.000   0.174   0.000   0.000   0.018   0.000   0.000
  0.000   0.000   0.000   0.078   0.000   0.000   0.005   0.000
  0.001  -0.000   0.000   0.000   0.174   0.000   0.000   0.018


------------------------ aborting loop because EDIFF is reached ----------------------------------------


    CHARGE:  cpu time    0.4044: real time    0.4045
    FORLOC:  cpu time    0.0279: real time    0.0279
    FORNL :  cpu time    1.9604: real time    1.9615
    STRESS:  cpu time    3.2941: real time    3.2962
    FORCOR:  cpu time    0.1204: real time    0.1205
    FORHAR:  cpu time    0.0482: real time    0.0485
    MIXING:  cpu time    0.0036: real time    0.0036
    OFIELD:  cpu time    0.0001: real time    0.0001

  FORCE on cell =-STRESS in cart. coord.  units (eV):
  Direction    XX          YY          ZZ          XY          YZ          ZX
  --------------------------------------------------------------------------------------
  Alpha Z    82.54348    82.54348    82.54348
  Ewald   41232.64515 41236.26262-47952.49038    -1.00948    -0.07519     0.01377
  Hartree 40516.44581 40516.78351-39998.62279    -0.06267    -0.07518     0.01335
  E(xc)    -777.16136  -777.14963  -804.23507    -0.00361     0.00005     0.00002
  Local  -83987.12143-83990.29661 85337.42920     0.86273     0.15619    -0.02432
  n-local  -203.95402  -203.90986  -194.69284    -0.00687     0.00309     0.00038
  augment   -12.37654   -12.38577   -14.04713     0.00016    -0.00054    -0.00006
  Kinetic  3164.43653  3163.79857  3596.27803     0.15651    -0.03276     0.00070
  Fock        0.00000     0.00000     0.00000     0.00000     0.00000     0.00000
  -------------------------------------------------------------------------------------
  Total      15.45762    15.64631    52.16250    -0.06324    -0.02434     0.00384
  in kB       9.45110     9.56647    31.89320    -0.03866    -0.01488     0.00235
  external pressure =       16.97 kB  Pullay stress =        0.00 kB


 VOLUME and BASIS-vectors are now :
 -----------------------------------------------------------------------------
  energy-cutoff  :      400.00
  volume of cell :     2620.42
      direct lattice vectors                 reciprocal lattice vectors
    12.300000191  0.000000000  0.000000000     0.081300812 -0.046939053  0.000000000
     6.150000804 10.652112223  0.000000000     0.000000000  0.093878095  0.000000000
     0.000000000  0.000000000 20.000000000     0.000000000  0.000000000  0.050000000

  length of vectors
    12.300000191 12.300000191 20.000000000     0.093878095  0.093878095  0.050000000


 FORCES acting on ions
    electron-ion (+dipol)            ewald-force                    non-local-force                 convergence-correction
 -----------------------------------------------------------------------------------------------
   -.146E+01 -.865E+00 0.279E+01   0.132E+01 0.790E+00 -.278E+01   0.855E-01 0.481E-01 -.234E-03   0.187E-03 0.105E-02 0.717E-03
   0.151E+01 -.865E+00 0.279E+01   -.137E+01 0.790E+00 -.278E+01   -.890E-01 0.485E-01 -.180E-03   0.237E-02 0.633E-03 -.105E-04
   0.387E+01 0.632E+01 0.381E+01   -.390E+01 -.636E+01 -.377E+01   -.144E+00 0.726E-01 -.719E-01   0.335E-03 0.225E-02 0.157E-03
   -.111E+01 0.108E+02 0.478E+01   0.128E+01 -.107E+02 -.492E+01   0.145E+00 0.269E+00 0.110E+00   -.347E-02 0.215E-03 0.181E-04
   -.357E+01 0.632E+01 0.381E+01   0.359E+01 -.636E+01 -.377E+01   0.118E+00 0.770E-01 -.733E-01   -.143E-02 0.285E-02 0.463E-03
   0.131E-01 0.171E+01 0.279E+01   -.142E-01 -.156E+01 -.278E+01   -.750E-03 -.979E-01 -.209E-03   0.116E-02 -.459E-03 0.380E-03
   0.116E+02 0.671E+01 0.489E+01   -.113E+02 -.653E+01 -.494E+01   0.109E+00 0.650E-01 0.525E-01   0.111E-02 -.182E-03 -.904E-04
   0.207E+02 0.363E+02 0.186E+02   -.212E+02 -.372E+02 -.190E+02   0.652E+00 0.626E+00 0.546E+00   0.149E-02 0.320E-02 0.104E-02
   -.207E+02 0.365E+02 0.186E+02   0.213E+02 -.374E+02 -.190E+02   -.648E+00 0.630E+00 0.543E+00   -.403E-02 0.433E-02 0.215E-03
   -.116E+02 0.675E+01 0.489E+01   0.113E+02 -.657E+01 -.494E+01   -.109E+00 0.638E-01 0.520E-01   -.159E-02 0.916E-03 -.454E-04
   0.740E+01 0.484E-02 0.381E+01   -.748E+01 -.131E-01 -.377E+01   0.982E-02 -.137E+00 -.714E-01   0.254E-02 -.195E-03 0.355E-03
   0.418E+02 -.225E-01 0.186E+02   -.428E+02 -.162E-01 -.190E+02   0.886E+00 0.222E+00 0.546E+00   0.369E-02 0.209E-02 -.283E-03
   -.920E-02 0.719E-01 0.291E+03   0.103E-01 -.579E-01 -.346E+03   0.913E-03 0.123E-02 0.713E+01   -.226E-02 -.143E-02 0.748E-02
   -.418E+02 0.630E-02 0.186E+02   0.428E+02 -.447E-01 -.190E+02   -.887E+00 0.223E+00 0.545E+00   -.411E-02 -.150E-03 -.532E-03
   -.740E+01 0.152E-01 0.381E+01   0.748E+01 -.247E-01 -.377E+01   -.110E-01 -.138E+00 -.711E-01   -.134E-02 0.795E-03 0.537E-03
   0.111E+02 -.642E+01 0.480E+01   -.113E+02 0.653E+01 -.494E+01   0.104E-01 -.634E-02 0.112E+00   0.326E-02 -.223E-02 -.426E-03
   0.209E+02 -.362E+02 0.186E+02   -.214E+02 0.371E+02 -.190E+02   0.247E+00 -.880E+00 0.546E+00   0.868E-03 -.441E-02 0.875E-04
   -.209E+02 -.362E+02 0.186E+02   0.214E+02 0.371E+02 -.190E+02   -.248E+00 -.881E+00 0.546E+00   -.196E-02 -.264E-03 0.174E-03
   -.111E+02 -.639E+01 0.480E+01   0.113E+02 0.650E+01 -.494E+01   -.127E-01 -.956E-02 0.112E+00   -.336E-02 -.604E-03 -.790E-04
   -.133E-01 -.143E+01 0.282E+01   0.105E-01 0.150E+01 -.278E+01   0.767E-03 -.869E-01 -.149E-01   0.571E-03 -.193E-02 0.609E-03
   0.370E+01 -.643E+01 0.381E+01   -.373E+01 0.650E+01 -.377E+01   0.124E+00 0.607E-01 -.716E-01   0.134E-02 -.362E-02 0.511E-03
   0.144E-01 -.135E+02 0.489E+01   -.143E-01 0.131E+02 -.494E+01   -.116E-02 -.125E+00 0.525E-01   0.705E-03 -.304E-02 0.122E-03
   -.366E+01 -.640E+01 0.381E+01   0.369E+01 0.647E+01 -.377E+01   -.125E+00 0.596E-01 -.714E-01   -.142E-02 -.878E-03 0.375E-04
   -.113E+01 0.997E+00 0.282E+01   0.119E+01 -.105E+01 -.278E+01   -.909E-01 0.220E-01 -.152E-01   -.952E-03 0.265E-02 0.462E-03
   0.113E+01 0.798E+00 0.282E+01   -.116E+01 -.851E+00 -.278E+01   0.710E-01 0.466E-01 -.152E-01   0.849E-03 0.849E-03 0.687E-03
   0.195E-01 -.741E-02 0.250E+01   -.195E-01 0.664E-02 -.250E+01   -.983E-03 0.757E-03 -.103E-01   0.165E-02 0.259E-03 0.311E-03
   0.534E+01 0.403E+01 0.341E+01   -.517E+01 -.425E+01 -.338E+01   -.811E-01 0.660E-02 -.237E-01   0.873E-03 0.143E-02 -.127E-03
   0.566E+01 0.164E+02 0.688E+01   -.541E+01 -.164E+02 -.650E+01   -.107E+00 0.883E-01 -.123E+00   0.928E-04 -.146E-03 0.364E-03
   -.484E+01 0.174E+02 0.688E+01   0.442E+01 -.174E+02 -.650E+01   0.630E-01 0.116E+00 -.127E+00   -.468E-03 0.358E-02 0.315E-03
   -.524E+01 0.406E+01 0.341E+01   0.507E+01 -.428E+01 -.338E+01   0.768E-01 0.577E-02 -.239E-01   -.584E-03 0.229E-02 0.466E-03
   0.618E+01 0.256E+01 0.341E+01   -.629E+01 -.231E+01 -.338E+01   -.327E-01 -.633E-01 -.239E-01   0.389E-02 0.775E-04 0.254E-03
   0.282E+02 0.163E+02 0.126E+02   -.285E+02 -.165E+02 -.131E+02   -.150E+00 -.986E-01 0.145E+00   0.160E-02 0.122E-03 0.182E-03
   -.584E-01 0.880E+02 0.586E+02   0.461E-01 -.924E+02 -.663E+02   -.257E-02 -.624E+00 0.332E+01   0.186E-02 0.546E-02 0.132E-02
   -.282E+02 0.164E+02 0.126E+02   0.285E+02 -.166E+02 -.131E+02   0.152E+00 -.954E-01 0.145E+00   -.330E-02 0.183E-02 -.354E-04
   -.616E+01 0.257E+01 0.341E+01   0.627E+01 -.232E+01 -.338E+01   0.324E-01 -.628E-01 -.239E-01   -.184E-02 0.340E-03 0.488E-03
   0.179E+02 -.330E+01 0.688E+01   -.177E+02 0.348E+01 -.650E+01   0.107E+00 -.138E+00 -.121E+00   0.265E-02 -.104E-02 -.215E-03
   0.760E+02 -.439E+02 0.586E+02   -.798E+02 0.461E+02 -.663E+02   -.558E+00 0.320E+00 0.330E+01   0.450E-02 -.103E-02 0.282E-02
   -.760E+02 -.438E+02 0.587E+02   0.799E+02 0.461E+02 -.663E+02   0.556E+00 0.320E+00 0.330E+01   -.370E-02 -.474E-02 0.512E-03
   -.179E+02 -.327E+01 0.688E+01   0.177E+02 0.346E+01 -.650E+01   -.107E+00 -.140E+00 -.121E+00   -.200E-02 -.574E-03 -.385E-04
   0.128E-02 -.577E+00 0.293E+01   -.903E-04 0.818E+00 -.290E+01   -.375E-03 -.153E+00 -.523E-01   0.694E-03 -.194E-02 0.347E-03
   0.118E+02 -.138E+02 0.688E+01   -.118E+02 0.136E+02 -.650E+01   0.171E+00 -.231E-01 -.121E+00   0.355E-02 -.305E-02 0.307E-03
   0.795E-02 -.327E+02 0.126E+02   -.716E-02 0.330E+02 -.131E+02   0.649E-03 0.183E+00 0.145E+00   -.102E-02 -.272E-02 -.115E-03
   -.118E+02 -.138E+02 0.688E+01   0.118E+02 0.135E+02 -.650E+01   -.172E+00 -.236E-01 -.121E+00   -.159E-02 -.104E-02 0.123E-03
   -.382E+01 -.212E+01 0.282E+01   0.376E+01 0.209E+01 -.286E+01   -.206E-01 -.165E-01 0.130E-01   -.268E-02 -.657E-03 0.579E-03
   0.380E+01 -.216E+01 0.282E+01   -.374E+01 0.213E+01 -.286E+01   0.180E-01 -.632E-02 0.129E-01   0.268E-02 -.197E-02 0.270E-03
   0.883E+00 -.664E+01 0.341E+01   -.116E+01 0.661E+01 -.338E+01   0.385E-01 0.599E-01 -.239E-01   0.162E-02 -.369E-02 0.491E-03
   -.841E+00 -.663E+01 0.341E+01   0.112E+01 0.660E+01 -.338E+01   -.387E-01 0.590E-01 -.238E-01   0.260E-03 -.178E-02 0.816E-04
   -.338E+00 0.350E+00 0.293E+01   0.551E+00 -.472E+00 -.290E+01   -.129E+00 0.752E-01 -.524E-01   -.126E-02 0.123E-02 0.132E-03
   -.412E+00 0.564E+01 0.282E+01   0.406E+00 -.578E+01 -.286E+01   -.436E-01 -.847E-02 0.125E-01   -.226E-02 0.477E-02 0.377E-03
   0.474E+00 0.215E+00 0.293E+01   -.686E+00 -.341E+00 -.290E+01   0.130E+00 0.714E-01 -.519E-01   0.757E-03 -.103E-02 0.538E-03
   0.198E-03 0.993E-01 -.722E+03   0.139E-01 -.749E-01 0.846E+03   -.320E-02 -.477E-01 -.638E+02   -.687E-02 -.101E-02 -.174E-01
 -----------------------------------------------------------------------------------------------
   0.130E-01 0.238E-01 0.440E+02   0.213E-13 -.303E-12 -.455E-12   -.637E-02 -.216E-01 -.440E+02   -.636E-02 -.260E-02 0.496E-02
 
 
 POSITION                                       TOTAL-FORCE (eV/Angst)
 -----------------------------------------------------------------------------------
      0.00000      0.00000      8.35995        -0.049117     -0.025913      0.009360
      2.46000      0.00000      8.35995         0.047065     -0.025133      0.009500
      4.92000      0.00000      8.35995        -0.180079      0.034843     -0.026243
     13.52500     10.64345      8.35995         0.307251      0.347573     -0.027209
      9.84000      0.00000      8.35995         0.136336      0.036018     -0.026900
      1.23000      2.13042      8.35995        -0.000727      0.054080      0.009361
      3.69000      2.13042      8.35995         0.427903      0.246626      0.000049
      6.15000      2.13042      8.35995         0.120105     -0.214125      0.166239
      8.61000      2.13042      8.35995        -0.109611     -0.249615      0.168394
     11.07000      2.13042      8.35995        -0.430593      0.244480     -0.000089
      2.46000      4.26084      8.35995        -0.066674     -0.145739     -0.026011
      4.92000      4.26084      8.35995        -0.128073      0.185391      0.164769
      7.38000      4.26084      8.35995        -0.000298      0.013778    -48.163985
      9.84000      4.26084      8.35995         0.126172      0.184251      0.164711
     12.30000      4.26084      8.35995         0.064532     -0.146587     -0.026043
      3.69000      6.39127      8.35995        -0.177581      0.103799     -0.026923
      6.15000      6.39127      8.35995        -0.225393      0.019015      0.164557
      8.61000      6.39127      8.35995         0.223739      0.018402      0.164733
     11.07000      6.39127      8.35995         0.178771      0.102718     -0.026983
     13.53000      6.39127      8.35995        -0.001548     -0.018319      0.017803
      4.92000      8.52169      8.35995         0.091351      0.130005     -0.025864
      7.38000      8.52169      8.35995        -0.000352     -0.495383     -0.000054
      9.84000      8.52169      8.35995        -0.096403      0.127952     -0.025973
     12.30000      8.52169      8.35995        -0.037502     -0.033018      0.017876
     14.76000      8.52169      8.35995         0.043764     -0.005187      0.017673
      1.23000      0.71014      8.36012         0.000615      0.000251     -0.006094
      3.69000      0.71014      8.36012         0.091575     -0.220904      0.010202
      6.15000      0.71014      8.36012         0.142737      0.160332      0.257537
      8.61000      0.71014      8.36012        -0.358284      0.099185      0.256277
     11.07000      0.71014      8.36012        -0.089818     -0.214233      0.010296
      2.46000      2.84056      8.36012        -0.138850      0.193886      0.010133
      4.92000      2.84056      8.36012        -0.440961     -0.261242     -0.355533
      7.38000      2.84056      8.36012        -0.012983     -5.062649     -4.338566
      9.84000      2.84056      8.36012         0.447373     -0.257417     -0.353994
     12.30000      2.84056      8.36012         0.140897      0.194050      0.009954
      3.69000      4.97099      8.36012         0.313352      0.042735      0.257284
      6.15000      4.97099      8.36012        -4.400012      2.538774     -4.353572
      8.61000      4.97099      8.36012         4.399499      2.539969     -4.351052
     11.07000      4.97099      8.36012        -0.312046      0.043213      0.256862
     13.53000      4.97099      8.36012         0.001507      0.086618     -0.022093
      4.92000      7.10141      8.36012         0.118330     -0.293474      0.257235
      7.38000      7.10141      8.36012         0.000417      0.509735     -0.355146
      9.84000      7.10141      8.36012        -0.118195     -0.291246      0.257031
     12.30000      7.10141      8.36012        -0.086620     -0.042019     -0.026453
     14.76000      7.10141      8.36012         0.081733     -0.037585     -0.026420
      6.15000      9.23183      8.36012        -0.236605      0.024090      0.010076
      8.61000      9.23183      8.36012         0.238787      0.022980      0.010120
     11.07000      9.23183      8.36012         0.083015     -0.045471     -0.022153
     13.53000      9.23183      8.36012        -0.052029     -0.139409     -0.026236
     15.99000      9.23183      8.36012        -0.080512     -0.055778     -0.022395
      7.38000      4.26084      9.36012         0.004042     -0.024303     59.983951
 -----------------------------------------------------------------------------------
    total drift:                                0.000301     -0.000413     -0.000318


--------------------------------------------------------------------------------------------------------



  FREE ENERGIE OF THE ION-ELECTRON SYSTEM (eV)
  ---------------------------------------------------
  free  energy   TOTEN  =      -454.33917442 eV

  energy  without entropy=     -454.33905882  energy(sigma->0) =     -454.33911662
 


--------------------------------------------------------------------------------------------------------


    POTLOK:  cpu time    0.1782: real time    0.1783


--------------------------------------------------------------------------------------------------------


 stress matrix after NEB project (eV)
     15.45762     -0.06324      0.00384
     -0.06324     15.64631     -0.02434
      0.00384     -0.02434     52.16250
  FORCES: max atom, RMS    59.983956   10.897080
  FORCE total and by dimension   77.820717   59.983951
  Stress total and by dimension   56.609903   52.162503
     LOOP+:  cpu time   42.2730: real time   42.3757
    4ORBIT:  cpu time    0.0000: real time    0.0000

 total amount of memory used by VASP MPI-rank0    90113. kBytes
=======================================================================

   base      :      30000. kBytes
   nonl-proj :       8674. kBytes
   fftplans  :      26248. kBytes
   grid      :      14579. kBytes
   one-center:         21. kBytes
   wavefun   :      10591. kBytes
 
  
  
 General timing and accounting informations for this job:
 ========================================================
  
                  Total CPU time used (sec):       49.949
                            User time (sec):       46.615
                          System time (sec):        3.334
                         Elapsed time (sec):       50.081
  
                   Maximum memory used (kb):      367132.
                   Average memory used (kb):           0.
  
                          Minor page faults:       105354
                          Major page faults:            0
                 Voluntary context switches:         1096
