<?xml version="1.0" encoding="ISO-8859-1"?>
<modeling>
 <generator>
  <i name="program" type="string">vasp </i>
  <i name="version" type="string">5.4.4.18Apr17-6-g9f103f2a35  </i>
  <i name="subversion" type="string">(build Aug 13 2022 23:40:43) complex            parallel </i>
  <i name="platform" type="string">LinuxIFC </i>
  <i name="date" type="string">2024 11 10 </i>
  <i name="time" type="string">03:49:21 </i>
 </generator>
 <incar>
  <i type="int" name="ISTART">     1</i>
  <i type="string" name="PREC">accurate</i>
  <i type="string" name="ALGO"> F          N:DAV,fine,slow</i>
  <i type="logical" name="ADDGRID"> T  </i>
  <i type="int" name="ISPIN">     1</i>
  <i type="int" name="ICHARG">     1</i>
  <i type="int" name="NELM">   300</i>
  <i type="int" name="IBRION">    -1</i>
  <i name="EDIFF">      0.00001000</i>
  <i name="EDIFFG">     -0.00100000</i>
  <i type="int" name="NSW">     1</i>
  <i type="int" name="ISIF">     2</i>
  <i name="ENCUT">    400.00000000</i>
  <i type="logical" name="LREAL"> F  </i>
  <i type="int" name="ISMEAR">     0</i>
  <i name="SIGMA">      0.05000000</i>
  <i type="logical" name="LWAVE"> F  </i>
  <i type="logical" name="LCHARG"> F  </i>
  <v type="int" name="KPOINT_BSE">    -1     0     0     0</v>
  <i type="int" name="NELM">   300</i>
 </incar>
 <structure name="primitive_cell" >
  <crystal>
   <varray name="basis" >
    <v>      12.30000019       0.00000000       0.00000000 </v>
    <v>       6.15000080      10.65211222       0.00000000 </v>
    <v>       0.00000000       0.00000000      20.00000000 </v>
   </varray>
   <i name="volume">   2620.41964732 </i>
   <varray name="rec_basis" >
    <v>       0.08130081      -0.04693905       0.00000000 </v>
    <v>       0.00000000       0.09387809       0.00000000 </v>
    <v>       0.00000000       0.00000000       0.05000000 </v>
   </varray>
  </crystal>
  <varray name="positions" >
   <v>       0.00000000       0.00000000       0.41799748 </v>
   <v>       0.06666667       0.06666660       0.41800609 </v>
   <v>      -0.13333333       0.06666660       0.41800609 </v>
   <v>       0.06666667      -0.13333340       0.41800609 </v>
   <v>      -0.20000000       0.20000000       0.41799748 </v>
   <v>       0.20000000      -0.20000000       0.41799748 </v>
   <v>       0.20000000       0.00000000       0.41799748 </v>
   <v>      -0.20000000       0.00000000       0.41799748 </v>
   <v>       0.00000000       0.20000000       0.41799748 </v>
   <v>       0.00000000      -0.20000000       0.41799748 </v>
   <v>      -0.13333333       0.26666660       0.41800609 </v>
   <v>       0.26666667      -0.13333340       0.41800609 </v>
   <v>      -0.13333333      -0.13333340       0.41800609 </v>
   <v>       0.06666667       0.26666660       0.41800609 </v>
   <v>      -0.33333333       0.26666660       0.41800609 </v>
   <v>       0.26666667       0.06666660       0.41800609 </v>
   <v>      -0.33333333       0.06666660       0.41800609 </v>
   <v>       0.26666667      -0.33333340       0.41800609 </v>
   <v>       0.06666667      -0.33333340       0.41800609 </v>
   <v>      -0.40000000       0.20000000       0.41799748 </v>
   <v>       0.40000000      -0.20000000       0.41799748 </v>
   <v>      -0.20000000       0.40000000       0.41799748 </v>
   <v>       0.20000000      -0.40000000       0.41799748 </v>
   <v>       0.20000000       0.20000000       0.41799748 </v>
   <v>      -0.20000000      -0.20000000       0.41799748 </v>
   <v>      -0.40000000       0.40000000       0.41799748 </v>
   <v>       0.40000000      -0.40000000       0.41799748 </v>
   <v>       0.40000000       0.00000000       0.41799748 </v>
   <v>       0.00000000       0.40000000       0.41799748 </v>
   <v>       0.00000000      -0.40000000       0.41799748 </v>
   <v>      -0.40000000      -0.00081301       0.41799748 </v>
   <v>      -0.13333333       0.46666660       0.41800609 </v>
   <v>      -0.33333333       0.46666660       0.41800609 </v>
   <v>       0.46666667      -0.13333340       0.41800609 </v>
   <v>       0.46666667      -0.33333340       0.41800609 </v>
   <v>      -0.33333333      -0.13333340       0.41800609 </v>
   <v>      -0.13333333      -0.33333340       0.41800609 </v>
   <v>       0.26666667       0.26666660       0.41800609 </v>
   <v>       0.46666667       0.26666660       0.41800609 </v>
   <v>       0.26666667       0.46666660       0.41800609 </v>
   <v>       0.06666667       0.46666660       0.41800609 </v>
   <v>       0.46666667       0.46666660       0.41800609 </v>
   <v>       0.46666667       0.06666660       0.41800609 </v>
   <v>       0.40000000       0.40000000       0.41799748 </v>
   <v>      -0.40000000      -0.40000000       0.41799748 </v>
   <v>       0.40000000       0.20000000       0.41799748 </v>
   <v>      -0.40000000      -0.20000000       0.41799748 </v>
   <v>       0.20000000       0.40000000       0.41799748 </v>
   <v>      -0.20000000      -0.40000000       0.41799748 </v>
   <v>       0.40000000       0.40000000       0.46800609 </v>
   <v>      -0.33333333      -0.33333340       0.41800609 </v>
  </varray>
 </structure>
 <varray name="primitive_index" >
  <v type="int" >        1 </v>
  <v type="int" >       26 </v>
  <v type="int" >       30 </v>
  <v type="int" >       46 </v>
  <v type="int" >       10 </v>
  <v type="int" >       22 </v>
  <v type="int" >        2 </v>
  <v type="int" >        5 </v>
  <v type="int" >        6 </v>
  <v type="int" >       21 </v>
  <v type="int" >       35 </v>
  <v type="int" >       47 </v>
  <v type="int" >       50 </v>
  <v type="int" >       31 </v>
  <v type="int" >       34 </v>
  <v type="int" >       27 </v>
  <v type="int" >       29 </v>
  <v type="int" >       42 </v>
  <v type="int" >       41 </v>
  <v type="int" >        9 </v>
  <v type="int" >       23 </v>
  <v type="int" >       15 </v>
  <v type="int" >       17 </v>
  <v type="int" >        7 </v>
  <v type="int" >       25 </v>
  <v type="int" >       14 </v>
  <v type="int" >       18 </v>
  <v type="int" >        3 </v>
  <v type="int" >       11 </v>
  <v type="int" >       16 </v>
  <v type="int" >        4 </v>
  <v type="int" >       40 </v>
  <v type="int" >       39 </v>
  <v type="int" >       48 </v>
  <v type="int" >       43 </v>
  <v type="int" >       49 </v>
  <v type="int" >       45 </v>
  <v type="int" >       32 </v>
  <v type="int" >       33 </v>
  <v type="int" >       37 </v>
  <v type="int" >       36 </v>
  <v type="int" >       38 </v>
  <v type="int" >       28 </v>
  <v type="int" >       13 </v>
  <v type="int" >       19 </v>
  <v type="int" >        8 </v>
  <v type="int" >       24 </v>
  <v type="int" >       12 </v>
  <v type="int" >       20 </v>
  <v type="int" >       51 </v>
  <v type="int" >       44 </v>
 </varray>
 <kpoints>
  <generation param="Gamma">
   <v type="int" name="divisions">       3        3        1 </v>
   <v name="usershift">      0.00000000       0.00000000       0.00000000 </v>
   <v name="genvec1">      0.33333333      -0.00000000       0.00000000 </v>
   <v name="genvec2">      0.00000000       0.33333333       0.00000000 </v>
   <v name="genvec3">      0.00000000       0.00000000       1.00000000 </v>
   <v name="shift">      0.00000000       0.00000000       0.00000000 </v>
  </generation>
  <varray name="kpointlist" >
   <v>       0.00000000       0.00000000       0.00000000 </v>
   <v>       0.33333333       0.00000000       0.00000000 </v>
   <v>       0.00000000       0.33333333       0.00000000 </v>
   <v>       0.33333333       0.33333333       0.00000000 </v>
   <v>      -0.33333333       0.33333333       0.00000000 </v>
  </varray>
  <varray name="weights" >
   <v>       0.11111111 </v>
   <v>       0.22222222 </v>
   <v>       0.22222222 </v>
   <v>       0.22222222 </v>
   <v>       0.22222222 </v>
  </varray>
 </kpoints>
 <parameters>
  <separator name="general" >
   <i type="string" name="SYSTEM"></i>
   <i type="logical" name="LCOMPAT"> F  </i>
  </separator>
  <separator name="electronic" >
   <i type="string" name="PREC">accura</i>
   <i name="ENMAX">    400.00000000</i>
   <i name="ENAUG">    644.87300000</i>
   <i name="EDIFF">      0.00001000</i>
   <i type="int" name="IALGO">    68</i>
   <i type="int" name="IWAVPR">    10</i>
   <i type="int" name="NBANDS">   132</i>
   <i name="NELECT">    206.00000000</i>
   <i type="int" name="TURBO">     0</i>
   <i type="int" name="IRESTART">     0</i>
   <i type="int" name="NREBOOT">     0</i>
   <i type="int" name="NMIN">     0</i>
   <i name="EREF">      0.00000000</i>
   <separator name="electronic smearing" >
    <i type="int" name="ISMEAR">     0</i>
    <i name="SIGMA">      0.05000000</i>
    <i name="KSPACING">      0.50000000</i>
    <i type="logical" name="KGAMMA"> T  </i>
   </separator>
   <separator name="electronic projectors" >
    <i type="logical" name="LREAL"> F  </i>
    <v name="ROPT">      0.00000000      0.00000000</v>
    <i type="int" name="LMAXPAW">  -100</i>
    <i type="int" name="LMAXMIX">     2</i>
    <i type="logical" name="NLSPLINE"> F  </i>
   </separator>
   <separator name="electronic startup" >
    <i type="int" name="ISTART">     1</i>
    <i type="int" name="ICHARG">     1</i>
    <i type="int" name="INIWAV">     1</i>
   </separator>
   <separator name="electronic spin" >
    <i type="int" name="ISPIN">     1</i>
    <i type="logical" name="LNONCOLLINEAR"> F  </i>
    <v name="MAGMOM">      1.00000000      1.00000000      1.00000000      1.00000000      1.00000000      1.00000000      1.00000000      1.00000000      1.00000000      1.00000000      1.00000000      1.00000000      1.00000000      1.00000000      1.00000000      1.00000000      1.00000000      1.00000000      1.00000000      1.00000000
      1.00000000      1.00000000      1.00000000      1.00000000      1.00000000      1.00000000      1.00000000      1.00000000      1.00000000      1.00000000      1.00000000      1.00000000      1.00000000      1.00000000      1.00000000      1.00000000      1.00000000      1.00000000      1.00000000      1.00000000
      1.00000000      1.00000000      1.00000000      1.00000000      1.00000000      1.00000000      1.00000000      1.00000000      1.00000000      1.00000000      1.00000000</v>
    <i name="NUPDOWN">     -1.00000000</i>
    <i type="logical" name="LSORBIT"> F  </i>
    <v name="SAXIS">      0.00000000      0.00000000      1.00000000</v>
    <i type="logical" name="LSPIRAL"> F  </i>
    <v name="QSPIRAL">      0.00000000      0.00000000      0.00000000</v>
    <i type="logical" name="LZEROZ"> F  </i>
   </separator>
   <separator name="electronic exchange-correlation" >
    <i type="logical" name="LASPH"> F  </i>
    <i type="logical" name="LMETAGGA"> F  </i>
   </separator>
   <separator name="electronic convergence" >
    <i type="int" name="NELM">   300</i>
    <i type="int" name="NELMDL">     0</i>
    <i type="int" name="NELMIN">     2</i>
    <i name="ENINI">    400.00000000</i>
    <separator name="electronic convergence detail" >
     <i type="logical" name="LDIAG"> T  </i>
     <i type="logical" name="LSUBROT"> F  </i>
     <i name="WEIMIN">      0.00000000</i>
     <i name="EBREAK">      0.00000002</i>
     <i name="DEPER">      0.30000000</i>
     <i type="int" name="NRMM">     4</i>
     <i name="TIME">      0.40000000</i>
    </separator>
   </separator>
   <separator name="electronic mixer" >
    <i name="AMIX">      0.40000000</i>
    <i name="BMIX">      1.00000000</i>
    <i name="AMIN">      0.10000000</i>
    <i name="AMIX_MAG">      1.60000000</i>
    <i name="BMIX_MAG">      1.00000000</i>
    <separator name="electronic mixer details" >
     <i type="int" name="IMIX">     4</i>
     <i type="logical" name="MIXFIRST"> F  </i>
     <i type="int" name="MAXMIX">   -45</i>
     <i name="WC">    100.00000000</i>
     <i type="int" name="INIMIX">     1</i>
     <i type="int" name="MIXPRE">     1</i>
     <i type="int" name="MREMOVE">     5</i>
    </separator>
   </separator>
   <separator name="electronic dipolcorrection" >
    <i type="logical" name="LDIPOL"> F  </i>
    <i type="logical" name="LMONO"> F  </i>
    <i type="int" name="IDIPOL">     0</i>
    <i name="EPSILON">      1.00000000</i>
    <v name="DIPOL">   -100.00000000   -100.00000000   -100.00000000</v>
    <i name="EFIELD">      0.00000000</i>
   </separator>
  </separator>
  <separator name="grids" >
   <i type="int" name="NGX">    80</i>
   <i type="int" name="NGY">    80</i>
   <i type="int" name="NGZ">   140</i>
   <i type="int" name="NGXF">   160</i>
   <i type="int" name="NGYF">   160</i>
   <i type="int" name="NGZF">   280</i>
   <i type="logical" name="ADDGRID"> T  </i>
  </separator>
  <separator name="ionic" >
   <i type="int" name="NSW">     1</i>
   <i type="int" name="IBRION">    -1</i>
   <i type="int" name="MDALGO">     0</i>
   <i type="int" name="ISIF">     2</i>
   <i name="PSTRESS">      0.00000000</i>
   <i name="EDIFFG">     -0.00100000</i>
   <i type="int" name="NFREE">     0</i>
   <i name="POTIM">      0.50000000</i>
   <i name="SMASS">     -3.00000000</i>
   <i name="SCALEE">      1.00000000</i>
  </separator>
  <separator name="ionic md" >
   <i name="TEBEG">      0.00010000</i>
   <i name="TEEND">      0.00010000</i>
   <i type="int" name="NBLOCK">     1</i>
   <i type="int" name="KBLOCK">     1</i>
   <i type="int" name="NPACO">   256</i>
   <i name="APACO">     16.00000000</i>
  </separator>
  <separator name="symmetry" >
   <i type="int" name="ISYM">     2</i>
   <i name="SYMPREC">      0.00001000</i>
  </separator>
  <separator name="dos" >
   <i type="int" name="LORBIT">     0</i>
   <v name="RWIGS">     -1.00000000     -1.00000000</v>
   <i type="int" name="NEDOS">   301</i>
   <i name="EMIN">     10.00000000</i>
   <i name="EMAX">    -10.00000000</i>
   <i name="EFERMI">      0.00000000</i>
  </separator>
  <separator name="writing" >
   <i type="int" name="NWRITE">     2</i>
   <i type="logical" name="LWAVE"> F  </i>
   <i type="logical" name="LDOWNSAMPLE"> F  </i>
   <i type="logical" name="LCHARG"> F  </i>
   <i type="logical" name="LPARD"> F  </i>
   <i type="logical" name="LVTOT"> F  </i>
   <i type="logical" name="LVHAR"> F  </i>
   <i type="logical" name="LELF"> F  </i>
   <i type="logical" name="LOPTICS"> F  </i>
   <v name="STM">      0.00000000      0.00000000      0.00000000      0.00000000      0.00000000      0.00000000      0.00000000</v>
  </separator>
  <separator name="performance" >
   <i type="int" name="NPAR">     6</i>
   <i type="int" name="NSIM">     4</i>
   <i type="int" name="NBLK">    -1</i>
   <i type="logical" name="LPLANE"> T  </i>
   <i type="logical" name="LSCALAPACK"> T  </i>
   <i type="logical" name="LSCAAWARE"> F  </i>
   <i type="logical" name="LSCALU"> F  </i>
   <i type="logical" name="LASYNC"> F  </i>
   <i type="logical" name="LORBITALREAL"> F  </i>
  </separator>
  <separator name="miscellaneous" >
   <i type="int" name="IDIOT">     3</i>
   <i type="int" name="ISPECIAL">     0</i>
   <i type="logical" name="LMUSIC"> F  </i>
   <v name="POMASS">     12.01100000     16.00000000</v>
   <v name="DARWINR">      0.00000000      0.00000000</v>
   <v name="DARWINV">      1.00000000      1.00000000</v>
   <i type="logical" name="LCORR"> T  </i>
  </separator>
  <i type="logical" name="GGA_COMPAT"> T  </i>
  <i type="logical" name="LBERRY"> F  </i>
  <i type="int" name="ICORELEVEL">     0</i>
  <i type="logical" name="LDAU"> F  </i>
  <i type="int" name="I_CONSTRAINED_M">     0</i>
  <separator name="electronic exchange-correlation" >
   <i type="string" name="GGA">--</i>
   <i type="int" name="VOSKOWN">     0</i>
   <i type="logical" name="LHFCALC"> F  </i>
   <i type="string" name="PRECFOCK"></i>
   <i type="logical" name="LSYMGRAD"> F  </i>
   <i type="logical" name="LHFONE"> F  </i>
   <i type="logical" name="LRHFCALC"> F  </i>
   <i type="logical" name="LTHOMAS"> F  </i>
   <i type="logical" name="LMODELHF"> F  </i>
   <i name="ENCUT4O">     -1.00000000</i>
   <i type="int" name="EXXOEP">     0</i>
   <i type="int" name="FOURORBIT">     0</i>
   <i name="AEXX">      0.00000000</i>
   <i name="HFALPHA">      0.00000000</i>
   <i name="MCALPHA">      0.00000000</i>
   <i name="ALDAX">      1.00000000</i>
   <i name="AGGAX">      1.00000000</i>
   <i name="ALDAC">      1.00000000</i>
   <i name="AGGAC">      1.00000000</i>
   <i type="int" name="NKREDX">     1</i>
   <i type="int" name="NKREDY">     1</i>
   <i type="int" name="NKREDZ">     1</i>
   <i type="logical" name="SHIFTRED"> F  </i>
   <i type="logical" name="ODDONLY"> F  </i>
   <i type="logical" name="EVENONLY"> F  </i>
   <i type="int" name="LMAXFOCK">     0</i>
   <i type="int" name="NMAXFOCKAE">     0</i>
   <i type="logical" name="LFOCKAEDFT"> F  </i>
   <i name="HFSCREEN">      0.00000000</i>
   <i name="HFSCREENC">      0.00000000</i>
   <i type="int" name="NBANDSGWLOW">     0</i>
  </separator>
  <separator name="vdW DFT" >
   <i type="logical" name="LUSE_VDW"> F  </i>
   <i name="Zab_VDW">     -0.84910000</i>
   <i name="PARAM1">      0.12340000</i>
   <i name="PARAM2">      1.00000000</i>
   <i name="PARAM3">      0.00000000</i>
  </separator>
  <separator name="model GW" >
   <i type="int" name="MODEL_GW">     0</i>
   <i name="MODEL_EPS0">     30.82846644</i>
   <i name="MODEL_ALPHA">      1.00000000</i>
  </separator>
  <separator name="linear response parameters" >
   <i type="logical" name="LEPSILON"> F  </i>
   <i type="logical" name="LRPA"> F  </i>
   <i type="logical" name="LNABLA"> F  </i>
   <i type="logical" name="LVEL"> F  </i>
   <i type="int" name="KINTER">     0</i>
   <i name="CSHIFT">      0.10000000</i>
   <i name="OMEGAMAX">     -1.00000000</i>
   <i name="DEG_THRESHOLD">      0.00200000</i>
   <i name="RTIME">     -0.10000000</i>
   <i name="WPLASMAI">      0.00000000</i>
   <v name="DFIELD">      0.00000000      0.00000000      0.00000000</v>
   <v name="WPLASMA">      0.00000000      0.00000000      0.00000000      0.00000000      0.00000000      0.00000000      0.00000000      0.00000000      0.00000000</v>
  </separator>
  <separator name="orbital magnetization" >
   <i type="logical" name="NUCIND"> F  </i>
   <v name="MAGPOS">      0.00000000      0.00000000      0.00000000</v>
   <i type="logical" name="LNICSALL"> T  </i>
   <i type="logical" name="ORBITALMAG"> F  </i>
   <i type="logical" name="LMAGBLOCH"> F  </i>
   <i type="logical" name="LCHIMAG"> F  </i>
   <i type="logical" name="LGAUGE"> T  </i>
   <i type="int" name="MAGATOM">     0</i>
   <v name="MAGDIPOL">      0.00000000      0.00000000      0.00000000</v>
   <v name="AVECCONST">      0.00000000      0.00000000      0.00000000</v>
  </separator>
  <separator name="response functions" >
   <i type="logical" name="LADDER"> F  </i>
   <i type="logical" name="LRPAFORCE"> F  </i>
   <i type="logical" name="LFXC"> F  </i>
   <i type="logical" name="LHARTREE"> T  </i>
   <i type="int" name="IBSE">     0</i>
   <v type="int" name="KPOINT">    -1     0     0     0</v>
   <i type="logical" name="LTCTE"> F  </i>
   <i type="logical" name="LTETE"> F  </i>
   <i type="logical" name="LTRIPLET"> F  </i>
   <i type="logical" name="LFXCEPS"> F  </i>
   <i type="logical" name="LFXHEG"> F  </i>
   <i type="int" name="NATURALO">     2</i>
   <i type="logical" name="L2ORDER"> F  </i>
   <i type="logical" name="LMP2LT"> F  </i>
   <i type="logical" name="LUSEW"> F  </i>
   <i name="ENCUTGW">     -2.00000000</i>
   <i name="ENCUTGWSOFT">     -2.00000000</i>
   <i name="ENCUTLF">     -1.00000000</i>
   <i type="int" name="LMAXMP2">    -1</i>
   <i name="SCISSOR">      0.00000000</i>
   <i type="int" name="NOMEGA">     0</i>
   <i type="int" name="NOMEGAR">     0</i>
   <i type="int" name="NBANDSGW">    -1</i>
   <i type="int" name="NBANDSO">    -1</i>
   <i type="int" name="NBANDSV">    -1</i>
   <i type="int" name="NELM">   300</i>
   <i type="int" name="NELMHF">     1</i>
   <i type="int" name="DIM">     3</i>
   <i type="int" name="ANTIRES">     0</i>
   <i name="OMEGAMAX">    -30.00000000</i>
   <i name="OMEGAMIN">    -30.00000000</i>
   <i name="OMEGATL">   -200.00000000</i>
   <i type="int" name="OMEGAGRID">   140</i>
   <i name="CSHIFT">     -0.10000000</i>
   <i type="logical" name="SELFENERGY"> F  </i>
   <i type="logical" name="LSPECTRAL"> F  </i>
   <i type="logical" name="LSPECTRALGW"> F  </i>
   <i type="logical" name="LSINGLES"> F  </i>
   <i type="logical" name="LFERMIGW"> F  </i>
   <i type="logical" name="ODDONLYGW"> F  </i>
   <i type="logical" name="EVENONLYGW"> F  </i>
   <i type="int" name="NKREDLFX">     1</i>
   <i type="int" name="NKREDLFY">     1</i>
   <i type="int" name="NKREDLFZ">     1</i>
   <i type="int" name="MAXMEM">  2800</i>
   <i type="int" name="TELESCOPE">     0</i>
   <i type="int" name="TAUPAR">     1</i>
   <i type="int" name="OMEGAPAR">    -1</i>
   <i name="LAMBDA">      1.00000000</i>
  </separator>
  <separator name="External order field" >
   <i name="OFIELD_KAPPA">      0.00000000</i>
   <v name="OFIELD_K">      0.00000000      0.00000000      0.00000000</v>
   <i name="OFIELD_Q6_NEAR">      0.00000000</i>
   <i name="OFIELD_Q6_FAR">      0.00000000</i>
   <i name="OFIELD_A">      0.00000000</i>
  </separator>
 </parameters>
 <atominfo>
  <atoms>      51 </atoms>
  <types>       2 </types>
  <array name="atoms" >
   <dimension dim="1">ion</dimension>
   <field type="string">element</field>
   <field type="int">atomtype</field>
   <set>
    <rc><c>C </c><c>   1</c></rc>
    <rc><c>C </c><c>   1</c></rc>
    <rc><c>C </c><c>   1</c></rc>
    <rc><c>C </c><c>   1</c></rc>
    <rc><c>C </c><c>   1</c></rc>
    <rc><c>C </c><c>   1</c></rc>
    <rc><c>C </c><c>   1</c></rc>
    <rc><c>C </c><c>   1</c></rc>
    <rc><c>C </c><c>   1</c></rc>
    <rc><c>C </c><c>   1</c></rc>
    <rc><c>C </c><c>   1</c></rc>
    <rc><c>C </c><c>   1</c></rc>
    <rc><c>C </c><c>   1</c></rc>
    <rc><c>C </c><c>   1</c></rc>
    <rc><c>C </c><c>   1</c></rc>
    <rc><c>C </c><c>   1</c></rc>
    <rc><c>C </c><c>   1</c></rc>
    <rc><c>C </c><c>   1</c></rc>
    <rc><c>C </c><c>   1</c></rc>
    <rc><c>C </c><c>   1</c></rc>
    <rc><c>C </c><c>   1</c></rc>
    <rc><c>C </c><c>   1</c></rc>
    <rc><c>C </c><c>   1</c></rc>
    <rc><c>C </c><c>   1</c></rc>
    <rc><c>C </c><c>   1</c></rc>
    <rc><c>C </c><c>   1</c></rc>
    <rc><c>C </c><c>   1</c></rc>
    <rc><c>C </c><c>   1</c></rc>
    <rc><c>C </c><c>   1</c></rc>
    <rc><c>C </c><c>   1</c></rc>
    <rc><c>C </c><c>   1</c></rc>
    <rc><c>C </c><c>   1</c></rc>
    <rc><c>C </c><c>   1</c></rc>
    <rc><c>C </c><c>   1</c></rc>
    <rc><c>C </c><c>   1</c></rc>
    <rc><c>C </c><c>   1</c></rc>
    <rc><c>C </c><c>   1</c></rc>
    <rc><c>C </c><c>   1</c></rc>
    <rc><c>C </c><c>   1</c></rc>
    <rc><c>C </c><c>   1</c></rc>
    <rc><c>C </c><c>   1</c></rc>
    <rc><c>C </c><c>   1</c></rc>
    <rc><c>C </c><c>   1</c></rc>
    <rc><c>C </c><c>   1</c></rc>
    <rc><c>C </c><c>   1</c></rc>
    <rc><c>C </c><c>   1</c></rc>
    <rc><c>C </c><c>   1</c></rc>
    <rc><c>C </c><c>   1</c></rc>
    <rc><c>C </c><c>   1</c></rc>
    <rc><c>C </c><c>   1</c></rc>
    <rc><c>O </c><c>   2</c></rc>
   </set>
  </array>
  <array name="atomtypes" >
   <dimension dim="1">type</dimension>
   <field type="int">atomspertype</field>
   <field type="string">element</field>
   <field>mass</field>
   <field>valence</field>
   <field type="string">pseudopotential</field>
   <set>
    <rc><c>  50</c><c>C </c><c>     12.01100000</c><c>      4.00000000</c><c>  PAW_PBE C 08Apr2002                   </c></rc>
    <rc><c>   1</c><c>O </c><c>     16.00000000</c><c>      6.00000000</c><c>  PAW_PBE O 08Apr2002                   </c></rc>
   </set>
  </array>
 </atominfo>
 <structure name="initialpos" >
  <crystal>
   <varray name="basis" >
    <v>      12.30000019       0.00000000       0.00000000 </v>
    <v>       6.15000080      10.65211222       0.00000000 </v>
    <v>       0.00000000       0.00000000      20.00000000 </v>
   </varray>
   <i name="volume">   2620.41964732 </i>
   <varray name="rec_basis" >
    <v>       0.08130081      -0.04693905       0.00000000 </v>
    <v>       0.00000000       0.09387809       0.00000000 </v>
    <v>       0.00000000       0.00000000       0.05000000 </v>
   </varray>
  </crystal>
  <varray name="positions" >
   <v>       0.00000000       0.00000000       0.41799748 </v>
   <v>       0.20000000       0.00000000       0.41799748 </v>
   <v>       0.40000000       0.00000000       0.41799748 </v>
   <v>       0.60000000       0.99918699       0.41799748 </v>
   <v>       0.80000000       0.00000000       0.41799748 </v>
   <v>       0.00000000       0.20000000       0.41799748 </v>
   <v>       0.20000000       0.20000000       0.41799748 </v>
   <v>       0.40000000       0.20000000       0.41799748 </v>
   <v>       0.60000000       0.20000000       0.41799748 </v>
   <v>       0.80000000       0.20000000       0.41799748 </v>
   <v>       0.00000000       0.40000000       0.41799748 </v>
   <v>       0.20000000       0.40000000       0.41799748 </v>
   <v>       0.40000000       0.40000000       0.41799748 </v>
   <v>       0.60000000       0.40000000       0.41799748 </v>
   <v>       0.80000000       0.40000000       0.41799748 </v>
   <v>       0.00000000       0.60000000       0.41799748 </v>
   <v>       0.20000000       0.60000000       0.41799748 </v>
   <v>       0.40000000       0.60000000       0.41799748 </v>
   <v>       0.60000000       0.60000000       0.41799748 </v>
   <v>       0.80000000       0.60000000       0.41799748 </v>
   <v>       0.00000000       0.80000000       0.41799748 </v>
   <v>       0.20000000       0.80000000       0.41799748 </v>
   <v>       0.40000000       0.80000000       0.41799748 </v>
   <v>       0.60000000       0.80000000       0.41799748 </v>
   <v>       0.80000000       0.80000000       0.41799748 </v>
   <v>       0.06666667       0.06666660       0.41800609 </v>
   <v>       0.26666667       0.06666660       0.41800609 </v>
   <v>       0.46666667       0.06666660       0.41800609 </v>
   <v>       0.66666667       0.06666660       0.41800609 </v>
   <v>       0.86666667       0.06666660       0.41800609 </v>
   <v>       0.06666667       0.26666660       0.41800609 </v>
   <v>       0.26666667       0.26666660       0.41800609 </v>
   <v>       0.46666667       0.26666660       0.41800609 </v>
   <v>       0.66666667       0.26666660       0.41800609 </v>
   <v>       0.86666667       0.26666660       0.41800609 </v>
   <v>       0.06666667       0.46666660       0.41800609 </v>
   <v>       0.26666667       0.46666660       0.41800609 </v>
   <v>       0.46666667       0.46666660       0.41800609 </v>
   <v>       0.66666667       0.46666660       0.41800609 </v>
   <v>       0.86666667       0.46666660       0.41800609 </v>
   <v>       0.06666667       0.66666660       0.41800609 </v>
   <v>       0.26666667       0.66666660       0.41800609 </v>
   <v>       0.46666667       0.66666660       0.41800609 </v>
   <v>       0.66666667       0.66666660       0.41800609 </v>
   <v>       0.86666667       0.66666660       0.41800609 </v>
   <v>       0.06666667       0.86666660       0.41800609 </v>
   <v>       0.26666667       0.86666660       0.41800609 </v>
   <v>       0.46666667       0.86666660       0.41800609 </v>
   <v>       0.66666667       0.86666660       0.41800609 </v>
   <v>       0.86666667       0.86666660       0.41800609 </v>
   <v>       0.40000000       0.40000000       0.46800609 </v>
  </varray>
  <varray name="velocities" >
   <v>       0.00000000       0.00000000       0.00000000 </v>
   <v>       0.00000000       0.00000000       0.00000000 </v>
   <v>       0.00000000       0.00000000       0.00000000 </v>
   <v>       0.00000000       0.00000000       0.00000000 </v>
   <v>       0.00000000       0.00000000       0.00000000 </v>
   <v>       0.00000000       0.00000000       0.00000000 </v>
   <v>       0.00000000       0.00000000       0.00000000 </v>
   <v>       0.00000000       0.00000000       0.00000000 </v>
   <v>       0.00000000       0.00000000       0.00000000 </v>
   <v>       0.00000000       0.00000000       0.00000000 </v>
   <v>       0.00000000       0.00000000       0.00000000 </v>
   <v>       0.00000000       0.00000000       0.00000000 </v>
   <v>       0.00000000       0.00000000       0.00000000 </v>
   <v>       0.00000000       0.00000000       0.00000000 </v>
   <v>       0.00000000       0.00000000       0.00000000 </v>
   <v>       0.00000000       0.00000000       0.00000000 </v>
   <v>       0.00000000       0.00000000       0.00000000 </v>
   <v>       0.00000000       0.00000000       0.00000000 </v>
   <v>       0.00000000       0.00000000       0.00000000 </v>
   <v>       0.00000000       0.00000000       0.00000000 </v>
   <v>       0.00000000       0.00000000       0.00000000 </v>
   <v>       0.00000000       0.00000000       0.00000000 </v>
   <v>       0.00000000       0.00000000       0.00000000 </v>
   <v>       0.00000000       0.00000000       0.00000000 </v>
   <v>       0.00000000       0.00000000       0.00000000 </v>
   <v>       0.00000000       0.00000000       0.00000000 </v>
   <v>       0.00000000       0.00000000       0.00000000 </v>
   <v>       0.00000000       0.00000000       0.00000000 </v>
   <v>       0.00000000       0.00000000       0.00000000 </v>
   <v>       0.00000000       0.00000000       0.00000000 </v>
   <v>       0.00000000       0.00000000       0.00000000 </v>
   <v>       0.00000000       0.00000000       0.00000000 </v>
   <v>       0.00000000       0.00000000       0.00000000 </v>
   <v>       0.00000000       0.00000000       0.00000000 </v>
   <v>       0.00000000       0.00000000       0.00000000 </v>
   <v>       0.00000000       0.00000000       0.00000000 </v>
   <v>       0.00000000       0.00000000       0.00000000 </v>
   <v>       0.00000000       0.00000000       0.00000000 </v>
   <v>       0.00000000       0.00000000       0.00000000 </v>
   <v>       0.00000000       0.00000000       0.00000000 </v>
   <v>       0.00000000       0.00000000       0.00000000 </v>
   <v>       0.00000000       0.00000000       0.00000000 </v>
   <v>       0.00000000       0.00000000       0.00000000 </v>
   <v>       0.00000000       0.00000000       0.00000000 </v>
   <v>       0.00000000       0.00000000       0.00000000 </v>
   <v>       0.00000000       0.00000000       0.00000000 </v>
   <v>       0.00000000       0.00000000       0.00000000 </v>
   <v>       0.00000000       0.00000000       0.00000000 </v>
   <v>       0.00000000       0.00000000       0.00000000 </v>
   <v>       0.00000000       0.00000000       0.00000000 </v>
   <v>       0.00000000       0.00000000       0.00000000 </v>
  </varray>
 </structure>
 <calculation>
  <scstep>
   <time name="dav">    4.11    4.11</time>
   <time name="total">    4.70    4.71</time>
   <energy>
    <i name="alphaZ">     82.54348252 </i>
    <i name="ewald">  34516.43805038 </i>
    <i name="hartreedc"> -41034.74276430 </i>
    <i name="XCdc">    721.38015513 </i>
    <i name="pawpsdc">  22781.19595426 </i>
    <i name="pawaedc"> -22817.52509957 </i>
    <i name="eentropy">     -0.00051605 </i>
    <i name="bandstr">  -2491.20873300 </i>
    <i name="atom">   7788.62438962 </i>
    <i name="e_fr_energy">   -453.29508101 </i>
    <i name="e_wo_entrp">   -453.29456496 </i>
    <i name="e_0_energy">   -453.29482299 </i>
   </energy>
  </scstep>
  <scstep>
   <time name="diag">    0.88    0.88</time>
   <time name="diis">    3.71    3.72</time>
   <time name="orth">    0.04    0.04</time>
   <time name="total">    5.21    5.22</time>
   <energy>
    <i name="e_fr_energy">   -454.28291886 </i>
    <i name="e_wo_entrp">   -454.28282438 </i>
    <i name="e_0_energy">   -454.28287162 </i>
   </energy>
  </scstep>
  <scstep>
   <time name="diag">    0.88    0.89</time>
   <time name="diis">    4.15    4.16</time>
   <time name="orth">    0.04    0.04</time>
   <time name="total">    5.65    5.66</time>
   <energy>
    <i name="e_fr_energy">   -454.33511153 </i>
    <i name="e_wo_entrp">   -454.33498501 </i>
    <i name="e_0_energy">   -454.33504827 </i>
   </energy>
  </scstep>
  <scstep>
   <time name="diag">    0.88    0.88</time>
   <time name="diis">    4.14    4.14</time>
   <time name="orth">    0.04    0.04</time>
   <time name="total">    5.63    5.64</time>
   <energy>
    <i name="e_fr_energy">   -454.33903792 </i>
    <i name="e_wo_entrp">   -454.33892843 </i>
    <i name="e_0_energy">   -454.33898317 </i>
   </energy>
  </scstep>
  <scstep>
   <time name="diag">    0.88    0.88</time>
   <time name="diis">    3.97    3.97</time>
   <time name="orth">    0.04    0.04</time>
   <time name="total">    5.47    5.47</time>
   <energy>
    <i name="e_fr_energy">   -454.33914302 </i>
    <i name="e_wo_entrp">   -454.33902992 </i>
    <i name="e_0_energy">   -454.33908647 </i>
   </energy>
  </scstep>
  <scstep>
   <time name="diag">    0.88    0.88</time>
   <time name="diis">    3.94    3.98</time>
   <time name="orth">    0.04    0.04</time>
   <time name="total">    5.43    5.48</time>
   <energy>
    <i name="e_fr_energy">   -454.33916753 </i>
    <i name="e_wo_entrp">   -454.33905278 </i>
    <i name="e_0_energy">   -454.33911015 </i>
   </energy>
  </scstep>
  <scstep>
   <time name="diag">    0.89    0.89</time>
   <time name="diis">    2.94    2.94</time>
   <time name="orth">    0.04    0.04</time>
   <time name="total">    4.05    4.06</time>
   <energy>
    <i name="alphaZ">     82.54348252 </i>
    <i name="ewald">  34516.43805038 </i>
    <i name="hartreedc"> -41034.81271391 </i>
    <i name="XCdc">    721.38561647 </i>
    <i name="pawpsdc">  22776.88119467 </i>
    <i name="pawaedc"> -22813.21352812 </i>
    <i name="eentropy">     -0.00011559 </i>
    <i name="bandstr">  -2492.18555046 </i>
    <i name="atom">   7788.62438962 </i>
    <i name="e_fr_energy">   -454.33917442 </i>
    <i name="e_wo_entrp">   -454.33905882 </i>
    <i name="e_0_energy">   -454.33911662 </i>
   </energy>
  </scstep>
  <structure>
   <crystal>
    <varray name="basis" >
     <v>      12.30000019       0.00000000       0.00000000 </v>
     <v>       6.15000080      10.65211222       0.00000000 </v>
     <v>       0.00000000       0.00000000      20.00000000 </v>
    </varray>
    <i name="volume">   2620.41964732 </i>
    <varray name="rec_basis" >
     <v>       0.08130081      -0.04693905       0.00000000 </v>
     <v>       0.00000000       0.09387809       0.00000000 </v>
     <v>       0.00000000       0.00000000       0.05000000 </v>
    </varray>
   </crystal>
   <varray name="positions" >
    <v>       0.00000000       0.00000000       0.41799748 </v>
    <v>       0.20000000       0.00000000       0.41799748 </v>
    <v>       0.40000000       0.00000000       0.41799748 </v>
    <v>       0.60000000       0.99918699       0.41799748 </v>
    <v>       0.80000000       0.00000000       0.41799748 </v>
    <v>       0.00000000       0.20000000       0.41799748 </v>
    <v>       0.20000000       0.20000000       0.41799748 </v>
    <v>       0.40000000       0.20000000       0.41799748 </v>
    <v>       0.60000000       0.20000000       0.41799748 </v>
    <v>       0.80000000       0.20000000       0.41799748 </v>
    <v>       0.00000000       0.40000000       0.41799748 </v>
    <v>       0.20000000       0.40000000       0.41799748 </v>
    <v>       0.40000000       0.40000000       0.41799748 </v>
    <v>       0.60000000       0.40000000       0.41799748 </v>
    <v>       0.80000000       0.40000000       0.41799748 </v>
    <v>       0.00000000       0.60000000       0.41799748 </v>
    <v>       0.20000000       0.60000000       0.41799748 </v>
    <v>       0.40000000       0.60000000       0.41799748 </v>
    <v>       0.60000000       0.60000000       0.41799748 </v>
    <v>       0.80000000       0.60000000       0.41799748 </v>
    <v>       0.00000000       0.80000000       0.41799748 </v>
    <v>       0.20000000       0.80000000       0.41799748 </v>
    <v>       0.40000000       0.80000000       0.41799748 </v>
    <v>       0.60000000       0.80000000       0.41799748 </v>
    <v>       0.80000000       0.80000000       0.41799748 </v>
    <v>       0.06666667       0.06666660       0.41800609 </v>
    <v>       0.26666667       0.06666660       0.41800609 </v>
    <v>       0.46666667       0.06666660       0.41800609 </v>
    <v>       0.66666667       0.06666660       0.41800609 </v>
    <v>       0.86666667       0.06666660       0.41800609 </v>
    <v>       0.06666667       0.26666660       0.41800609 </v>
    <v>       0.26666667       0.26666660       0.41800609 </v>
    <v>       0.46666667       0.26666660       0.41800609 </v>
    <v>       0.66666667       0.26666660       0.41800609 </v>
    <v>       0.86666667       0.26666660       0.41800609 </v>
    <v>       0.06666667       0.46666660       0.41800609 </v>
    <v>       0.26666667       0.46666660       0.41800609 </v>
    <v>       0.46666667       0.46666660       0.41800609 </v>
    <v>       0.66666667       0.46666660       0.41800609 </v>
    <v>       0.86666667       0.46666660       0.41800609 </v>
    <v>       0.06666667       0.66666660       0.41800609 </v>
    <v>       0.26666667       0.66666660       0.41800609 </v>
    <v>       0.46666667       0.66666660       0.41800609 </v>
    <v>       0.66666667       0.66666660       0.41800609 </v>
    <v>       0.86666667       0.66666660       0.41800609 </v>
    <v>       0.06666667       0.86666660       0.41800609 </v>
    <v>       0.26666667       0.86666660       0.41800609 </v>
    <v>       0.46666667       0.86666660       0.41800609 </v>
    <v>       0.66666667       0.86666660       0.41800609 </v>
    <v>       0.86666667       0.86666660       0.41800609 </v>
    <v>       0.40000000       0.40000000       0.46800609 </v>
   </varray>
  </structure>
  <varray name="forces" >
   <v>      -0.04911733      -0.02591264       0.00935966 </v>
   <v>       0.04706540      -0.02513320       0.00950050 </v>
   <v>      -0.18007946       0.03484310      -0.02624312 </v>
   <v>       0.30725072       0.34757267      -0.02720853 </v>
   <v>       0.13633602       0.03601819      -0.02690041 </v>
   <v>      -0.00072736       0.05407981       0.00936141 </v>
   <v>       0.42790322       0.24662559       0.00004871 </v>
   <v>       0.12010458      -0.21412480       0.16623940 </v>
   <v>      -0.10961085      -0.24961511       0.16839352 </v>
   <v>      -0.43059348       0.24448015      -0.00008856 </v>
   <v>      -0.06667433      -0.14573856      -0.02601068 </v>
   <v>      -0.12807283       0.18539062       0.16476933 </v>
   <v>      -0.00029822       0.01377760     -48.16398518 </v>
   <v>       0.12617217       0.18425135       0.16471091 </v>
   <v>       0.06453207      -0.14658720      -0.02604319 </v>
   <v>      -0.17758112       0.10379941      -0.02692324 </v>
   <v>      -0.22539314       0.01901456       0.16455708 </v>
   <v>       0.22373941       0.01840186       0.16473333 </v>
   <v>       0.17877112       0.10271841      -0.02698252 </v>
   <v>      -0.00154774      -0.01831851       0.01780263 </v>
   <v>       0.09135133       0.13000466      -0.02586413 </v>
   <v>      -0.00035178      -0.49538318      -0.00005439 </v>
   <v>      -0.09640309       0.12795161      -0.02597262 </v>
   <v>      -0.03750212      -0.03301822       0.01787636 </v>
   <v>       0.04376362      -0.00518711       0.01767347 </v>
   <v>       0.00061463       0.00025138      -0.00609375 </v>
   <v>       0.09157497      -0.22090408       0.01020155 </v>
   <v>       0.14273678       0.16033209       0.25753675 </v>
   <v>      -0.35828386       0.09918496       0.25627708 </v>
   <v>      -0.08981826      -0.21423282       0.01029616 </v>
   <v>      -0.13884990       0.19388611       0.01013286 </v>
   <v>      -0.44096108      -0.26124160      -0.35553325 </v>
   <v>      -0.01298263      -5.06264870      -4.33856640 </v>
   <v>       0.44737333      -0.25741683      -0.35399350 </v>
   <v>       0.14089720       0.19404986       0.00995405 </v>
   <v>       0.31335212       0.04273534       0.25728397 </v>
   <v>      -4.40001167       2.53877394      -4.35357211 </v>
   <v>       4.39949903       2.53996876      -4.35105229 </v>
   <v>      -0.31204608       0.04321314       0.25686154 </v>
   <v>       0.00150665       0.08661785      -0.02209277 </v>
   <v>       0.11832962      -0.29347412       0.25723549 </v>
   <v>       0.00041680       0.50973472      -0.35514580 </v>
   <v>      -0.11819498      -0.29124627       0.25703142 </v>
   <v>      -0.08662025      -0.04201902      -0.02645305 </v>
   <v>       0.08173305      -0.03758542      -0.02642009 </v>
   <v>      -0.23660451       0.02409031       0.01007648 </v>
   <v>       0.23878676       0.02298015       0.01011962 </v>
   <v>       0.08301482      -0.04547100      -0.02215318 </v>
   <v>      -0.05202890      -0.13940876      -0.02623617 </v>
   <v>      -0.08051221      -0.05577842      -0.02239538 </v>
   <v>       0.00404178      -0.02430268      59.98395103 </v>
  </varray>
  <varray name="stress" >
   <v>       9.45110027      -0.03866382       0.00234595 </v>
   <v>      -0.03866381       9.56647182      -0.01487987 </v>
   <v>       0.00234594      -0.01487986      31.89320426 </v>
  </varray>
  <energy>
   <i name="e_fr_energy">   -454.33917442 </i>
   <i name="e_wo_entrp">   -454.33911662 </i>
   <i name="e_0_energy">     -0.00011559 </i>
  </energy>
  <time name="totalsc">   42.27   42.38</time>
  <eigenvalues>
   <array>
    <dimension dim="1">band</dimension>
    <dimension dim="2">kpoint</dimension>
    <dimension dim="3">spin</dimension>
    <field>eigene</field>
    <field>occ</field>
    <set>
     <set comment="spin 1">
      <set comment="kpoint 1">
       <r>  -31.7414    1.0000 </r>
       <r>  -22.2708    1.0000 </r>
       <r>  -21.5030    1.0000 </r>
       <r>  -21.5004    1.0000 </r>
       <r>  -21.3971    1.0000 </r>
       <r>  -21.3937    1.0000 </r>
       <r>  -21.3924    1.0000 </r>
       <r>  -20.8742    1.0000 </r>
       <r>  -19.8807    1.0000 </r>
       <r>  -19.8763    1.0000 </r>
       <r>  -19.5494    1.0000 </r>
       <r>  -19.5470    1.0000 </r>
       <r>  -19.5364    1.0000 </r>
       <r>  -19.1915    1.0000 </r>
       <r>  -18.9015    1.0000 </r>
       <r>  -18.8991    1.0000 </r>
       <r>  -18.6496    1.0000 </r>
       <r>  -18.6425    1.0000 </r>
       <r>  -18.6382    1.0000 </r>
       <r>  -17.8829    1.0000 </r>
       <r>  -17.0214    1.0000 </r>
       <r>  -17.0194    1.0000 </r>
       <r>  -16.4763    1.0000 </r>
       <r>  -16.4639    1.0000 </r>
       <r>  -16.4557    1.0000 </r>
       <r>  -16.0492    1.0000 </r>
       <r>  -15.9997    1.0000 </r>
       <r>  -15.9966    1.0000 </r>
       <r>  -15.4964    1.0000 </r>
       <r>  -15.4941    1.0000 </r>
       <r>  -15.4894    1.0000 </r>
       <r>  -15.0924    1.0000 </r>
       <r>  -14.6315    1.0000 </r>
       <r>  -14.6254    1.0000 </r>
       <r>  -14.1515    1.0000 </r>
       <r>  -14.1501    1.0000 </r>
       <r>  -14.1440    1.0000 </r>
       <r>  -13.9641    1.0000 </r>
       <r>  -12.9921    1.0000 </r>
       <r>  -12.9874    1.0000 </r>
       <r>  -12.0341    1.0000 </r>
       <r>  -11.7648    1.0000 </r>
       <r>  -11.7637    1.0000 </r>
       <r>  -11.7564    1.0000 </r>
       <r>  -11.6925    1.0000 </r>
       <r>  -11.6901    1.0000 </r>
       <r>  -11.6542    1.0000 </r>
       <r>  -11.6502    1.0000 </r>
       <r>  -11.6494    1.0000 </r>
       <r>  -11.6463    1.0000 </r>
       <r>  -10.8017    1.0000 </r>
       <r>  -10.7966    1.0000 </r>
       <r>  -10.4369    1.0000 </r>
       <r>  -10.3344    1.0000 </r>
       <r>  -10.2885    1.0000 </r>
       <r>  -10.2860    1.0000 </r>
       <r>  -10.2698    1.0000 </r>
       <r>  -10.0783    1.0000 </r>
       <r>   -9.6870    1.0000 </r>
       <r>   -9.6852    1.0000 </r>
       <r>   -9.3254    1.0000 </r>
       <r>   -9.3250    1.0000 </r>
       <r>   -9.3021    1.0000 </r>
       <r>   -9.2794    1.0000 </r>
       <r>   -9.2778    1.0000 </r>
       <r>   -9.0444    1.0000 </r>
       <r>   -9.0066    1.0000 </r>
       <r>   -9.0045    1.0000 </r>
       <r>   -8.9487    1.0000 </r>
       <r>   -8.9422    1.0000 </r>
       <r>   -8.9386    1.0000 </r>
       <r>   -8.9293    1.0000 </r>
       <r>   -8.9198    1.0000 </r>
       <r>   -8.9140    1.0000 </r>
       <r>   -8.8959    1.0000 </r>
       <r>   -8.4377    1.0000 </r>
       <r>   -7.8086    1.0000 </r>
       <r>   -7.8002    1.0000 </r>
       <r>   -7.3300    1.0000 </r>
       <r>   -7.3246    1.0000 </r>
       <r>   -7.3102    1.0000 </r>
       <r>   -7.3050    1.0000 </r>
       <r>   -7.2996    1.0000 </r>
       <r>   -7.2877    1.0000 </r>
       <r>   -7.1614    1.0000 </r>
       <r>   -7.1607    1.0000 </r>
       <r>   -7.1529    1.0000 </r>
       <r>   -6.7520    1.0000 </r>
       <r>   -6.5075    1.0000 </r>
       <r>   -6.5052    1.0000 </r>
       <r>   -6.2627    1.0000 </r>
       <r>   -6.2503    1.0000 </r>
       <r>   -6.2459    1.0000 </r>
       <r>   -5.9278    1.0000 </r>
       <r>   -5.9154    1.0000 </r>
       <r>   -5.1953    1.0000 </r>
       <r>   -4.7637    1.0000 </r>
       <r>   -4.7614    1.0000 </r>
       <r>   -4.2719    1.0000 </r>
       <r>   -4.2698    1.0000 </r>
       <r>   -4.2652    1.0000 </r>
       <r>   -3.2159    1.0000 </r>
       <r>   -3.2147    1.0000 </r>
       <r>   -2.9164    0.0022 </r>
       <r>   -1.4612    0.0000 </r>
       <r>   -1.4568    0.0000 </r>
       <r>   -1.4493    0.0000 </r>
       <r>   -0.9956    0.0000 </r>
       <r>   -0.9907    0.0000 </r>
       <r>   -0.5429    0.0000 </r>
       <r>    0.4096    0.0000 </r>
       <r>    0.4216    0.0000 </r>
       <r>    0.4264    0.0000 </r>
       <r>    0.5617    0.0000 </r>
       <r>    0.8417    0.0000 </r>
       <r>    0.8457    0.0000 </r>
       <r>    1.2925    0.0000 </r>
       <r>    1.3388    0.0000 </r>
       <r>    1.6812    0.0000 </r>
       <r>    1.8017    0.0000 </r>
       <r>    1.8023    0.0000 </r>
       <r>    1.8026    0.0000 </r>
       <r>    1.8262    0.0000 </r>
       <r>    1.8265    0.0000 </r>
       <r>    2.0300    0.0000 </r>
       <r>    2.1758    0.0000 </r>
       <r>    2.1797    0.0000 </r>
       <r>    2.1851    0.0000 </r>
       <r>    2.3471    0.0000 </r>
       <r>    2.3475    0.0000 </r>
       <r>    2.6160    0.0000 </r>
       <r>    2.6419    0.0000 </r>
      </set>
      <set comment="kpoint 2">
       <r>  -31.7414    1.0000 </r>
       <r>  -22.1887    1.0000 </r>
       <r>  -21.8695    1.0000 </r>
       <r>  -21.6598    1.0000 </r>
       <r>  -21.4545    1.0000 </r>
       <r>  -21.0333    1.0000 </r>
       <r>  -20.8986    1.0000 </r>
       <r>  -20.7272    1.0000 </r>
       <r>  -20.4185    1.0000 </r>
       <r>  -20.1624    1.0000 </r>
       <r>  -19.7878    1.0000 </r>
       <r>  -19.7022    1.0000 </r>
       <r>  -19.3240    1.0000 </r>
       <r>  -19.2449    1.0000 </r>
       <r>  -19.0596    1.0000 </r>
       <r>  -18.5900    1.0000 </r>
       <r>  -18.4567    1.0000 </r>
       <r>  -18.1246    1.0000 </r>
       <r>  -18.0606    1.0000 </r>
       <r>  -17.5914    1.0000 </r>
       <r>  -17.4946    1.0000 </r>
       <r>  -17.2991    1.0000 </r>
       <r>  -17.2804    1.0000 </r>
       <r>  -16.8512    1.0000 </r>
       <r>  -16.6587    1.0000 </r>
       <r>  -16.1757    1.0000 </r>
       <r>  -15.9799    1.0000 </r>
       <r>  -15.8474    1.0000 </r>
       <r>  -15.2985    1.0000 </r>
       <r>  -15.1706    1.0000 </r>
       <r>  -15.1306    1.0000 </r>
       <r>  -14.8856    1.0000 </r>
       <r>  -14.7793    1.0000 </r>
       <r>  -14.4782    1.0000 </r>
       <r>  -14.4560    1.0000 </r>
       <r>  -13.7675    1.0000 </r>
       <r>  -13.7593    1.0000 </r>
       <r>  -13.1982    1.0000 </r>
       <r>  -13.0872    1.0000 </r>
       <r>  -12.9352    1.0000 </r>
       <r>  -12.9036    1.0000 </r>
       <r>  -12.5833    1.0000 </r>
       <r>  -12.5520    1.0000 </r>
       <r>  -12.3909    1.0000 </r>
       <r>  -12.0214    1.0000 </r>
       <r>  -11.6614    1.0000 </r>
       <r>  -11.4487    1.0000 </r>
       <r>  -11.2957    1.0000 </r>
       <r>  -11.1232    1.0000 </r>
       <r>  -10.9121    1.0000 </r>
       <r>  -10.8507    1.0000 </r>
       <r>  -10.5854    1.0000 </r>
       <r>  -10.5336    1.0000 </r>
       <r>  -10.2831    1.0000 </r>
       <r>  -10.2367    1.0000 </r>
       <r>  -10.1597    1.0000 </r>
       <r>  -10.0472    1.0000 </r>
       <r>   -9.8535    1.0000 </r>
       <r>   -9.8193    1.0000 </r>
       <r>   -9.6555    1.0000 </r>
       <r>   -9.6062    1.0000 </r>
       <r>   -9.5614    1.0000 </r>
       <r>   -9.5272    1.0000 </r>
       <r>   -9.3676    1.0000 </r>
       <r>   -9.3391    1.0000 </r>
       <r>   -9.2568    1.0000 </r>
       <r>   -9.1748    1.0000 </r>
       <r>   -9.1018    1.0000 </r>
       <r>   -9.0830    1.0000 </r>
       <r>   -8.8640    1.0000 </r>
       <r>   -8.7133    1.0000 </r>
       <r>   -8.6661    1.0000 </r>
       <r>   -8.5049    1.0000 </r>
       <r>   -8.4011    1.0000 </r>
       <r>   -8.2892    1.0000 </r>
       <r>   -8.1331    1.0000 </r>
       <r>   -8.0931    1.0000 </r>
       <r>   -8.0664    1.0000 </r>
       <r>   -7.9716    1.0000 </r>
       <r>   -7.8075    1.0000 </r>
       <r>   -7.6187    1.0000 </r>
       <r>   -7.3609    1.0000 </r>
       <r>   -7.3392    1.0000 </r>
       <r>   -7.2672    1.0000 </r>
       <r>   -7.1967    1.0000 </r>
       <r>   -6.9177    1.0000 </r>
       <r>   -6.8734    1.0000 </r>
       <r>   -6.6925    1.0000 </r>
       <r>   -6.5899    1.0000 </r>
       <r>   -6.3473    1.0000 </r>
       <r>   -6.1836    1.0000 </r>
       <r>   -6.0721    1.0000 </r>
       <r>   -5.9199    1.0000 </r>
       <r>   -5.7409    1.0000 </r>
       <r>   -5.6397    1.0000 </r>
       <r>   -5.3226    1.0000 </r>
       <r>   -5.1138    1.0000 </r>
       <r>   -4.9706    1.0000 </r>
       <r>   -4.9236    1.0000 </r>
       <r>   -4.2704    1.0000 </r>
       <r>   -4.1696    1.0000 </r>
       <r>   -3.3368    1.0000 </r>
       <r>   -3.1367    0.9996 </r>
       <r>   -2.8049    0.0000 </r>
       <r>   -1.5921    0.0000 </r>
       <r>   -1.4206    0.0000 </r>
       <r>   -0.8387    0.0000 </r>
       <r>   -0.8142    0.0000 </r>
       <r>   -0.7063    0.0000 </r>
       <r>   -0.6703    0.0000 </r>
       <r>   -0.1293    0.0000 </r>
       <r>   -0.0057    0.0000 </r>
       <r>    0.2894    0.0000 </r>
       <r>    0.7040    0.0000 </r>
       <r>    0.7263    0.0000 </r>
       <r>    1.0991    0.0000 </r>
       <r>    1.1746    0.0000 </r>
       <r>    1.3664    0.0000 </r>
       <r>    1.4621    0.0000 </r>
       <r>    1.5373    0.0000 </r>
       <r>    1.5684    0.0000 </r>
       <r>    1.6354    0.0000 </r>
       <r>    1.8307    0.0000 </r>
       <r>    1.9113    0.0000 </r>
       <r>    2.0442    0.0000 </r>
       <r>    2.2221    0.0000 </r>
       <r>    2.2714    0.0000 </r>
       <r>    2.3277    0.0000 </r>
       <r>    2.3394    0.0000 </r>
       <r>    2.3955    0.0000 </r>
       <r>    2.4566    0.0000 </r>
       <r>    2.7965    0.0000 </r>
      </set>
      <set comment="kpoint 3">
       <r>  -31.7414    1.0000 </r>
       <r>  -22.1887    1.0000 </r>
       <r>  -21.8691    1.0000 </r>
       <r>  -21.6608    1.0000 </r>
       <r>  -21.4540    1.0000 </r>
       <r>  -21.0341    1.0000 </r>
       <r>  -20.8952    1.0000 </r>
       <r>  -20.7290    1.0000 </r>
       <r>  -20.4195    1.0000 </r>
       <r>  -20.1647    1.0000 </r>
       <r>  -19.7859    1.0000 </r>
       <r>  -19.6986    1.0000 </r>
       <r>  -19.3282    1.0000 </r>
       <r>  -19.2416    1.0000 </r>
       <r>  -19.0616    1.0000 </r>
       <r>  -18.5923    1.0000 </r>
       <r>  -18.4545    1.0000 </r>
       <r>  -18.1201    1.0000 </r>
       <r>  -18.0647    1.0000 </r>
       <r>  -17.5909    1.0000 </r>
       <r>  -17.4970    1.0000 </r>
       <r>  -17.3025    1.0000 </r>
       <r>  -17.2758    1.0000 </r>
       <r>  -16.8493    1.0000 </r>
       <r>  -16.6565    1.0000 </r>
       <r>  -16.1838    1.0000 </r>
       <r>  -15.9786    1.0000 </r>
       <r>  -15.8474    1.0000 </r>
       <r>  -15.2960    1.0000 </r>
       <r>  -15.1683    1.0000 </r>
       <r>  -15.1315    1.0000 </r>
       <r>  -14.8826    1.0000 </r>
       <r>  -14.7798    1.0000 </r>
       <r>  -14.4798    1.0000 </r>
       <r>  -14.4552    1.0000 </r>
       <r>  -13.7698    1.0000 </r>
       <r>  -13.7613    1.0000 </r>
       <r>  -13.1958    1.0000 </r>
       <r>  -13.0877    1.0000 </r>
       <r>  -12.9322    1.0000 </r>
       <r>  -12.9060    1.0000 </r>
       <r>  -12.5828    1.0000 </r>
       <r>  -12.5552    1.0000 </r>
       <r>  -12.3897    1.0000 </r>
       <r>  -12.0226    1.0000 </r>
       <r>  -11.6647    1.0000 </r>
       <r>  -11.4471    1.0000 </r>
       <r>  -11.2916    1.0000 </r>
       <r>  -11.1202    1.0000 </r>
       <r>  -10.9141    1.0000 </r>
       <r>  -10.8459    1.0000 </r>
       <r>  -10.5842    1.0000 </r>
       <r>  -10.5323    1.0000 </r>
       <r>  -10.2857    1.0000 </r>
       <r>  -10.2369    1.0000 </r>
       <r>  -10.1621    1.0000 </r>
       <r>  -10.0529    1.0000 </r>
       <r>   -9.8534    1.0000 </r>
       <r>   -9.8175    1.0000 </r>
       <r>   -9.6533    1.0000 </r>
       <r>   -9.6063    1.0000 </r>
       <r>   -9.5659    1.0000 </r>
       <r>   -9.5263    1.0000 </r>
       <r>   -9.3691    1.0000 </r>
       <r>   -9.3411    1.0000 </r>
       <r>   -9.2632    1.0000 </r>
       <r>   -9.1747    1.0000 </r>
       <r>   -9.0955    1.0000 </r>
       <r>   -9.0818    1.0000 </r>
       <r>   -8.8642    1.0000 </r>
       <r>   -8.7122    1.0000 </r>
       <r>   -8.6632    1.0000 </r>
       <r>   -8.5071    1.0000 </r>
       <r>   -8.3980    1.0000 </r>
       <r>   -8.2881    1.0000 </r>
       <r>   -8.1308    1.0000 </r>
       <r>   -8.0948    1.0000 </r>
       <r>   -8.0596    1.0000 </r>
       <r>   -7.9689    1.0000 </r>
       <r>   -7.8101    1.0000 </r>
       <r>   -7.6272    1.0000 </r>
       <r>   -7.3598    1.0000 </r>
       <r>   -7.3363    1.0000 </r>
       <r>   -7.2713    1.0000 </r>
       <r>   -7.1965    1.0000 </r>
       <r>   -6.9234    1.0000 </r>
       <r>   -6.8720    1.0000 </r>
       <r>   -6.6900    1.0000 </r>
       <r>   -6.5913    1.0000 </r>
       <r>   -6.3517    1.0000 </r>
       <r>   -6.1798    1.0000 </r>
       <r>   -6.0709    1.0000 </r>
       <r>   -5.9198    1.0000 </r>
       <r>   -5.7385    1.0000 </r>
       <r>   -5.6400    1.0000 </r>
       <r>   -5.3226    1.0000 </r>
       <r>   -5.1145    1.0000 </r>
       <r>   -4.9708    1.0000 </r>
       <r>   -4.9220    1.0000 </r>
       <r>   -4.2723    1.0000 </r>
       <r>   -4.1683    1.0000 </r>
       <r>   -3.3391    1.0000 </r>
       <r>   -3.1368    0.9996 </r>
       <r>   -2.8038    0.0000 </r>
       <r>   -1.5904    0.0000 </r>
       <r>   -1.4188    0.0000 </r>
       <r>   -0.8399    0.0000 </r>
       <r>   -0.8186    0.0000 </r>
       <r>   -0.7063    0.0000 </r>
       <r>   -0.6669    0.0000 </r>
       <r>   -0.1310    0.0000 </r>
       <r>   -0.0061    0.0000 </r>
       <r>    0.2885    0.0000 </r>
       <r>    0.7040    0.0000 </r>
       <r>    0.7275    0.0000 </r>
       <r>    1.0984    0.0000 </r>
       <r>    1.1740    0.0000 </r>
       <r>    1.3659    0.0000 </r>
       <r>    1.4631    0.0000 </r>
       <r>    1.5375    0.0000 </r>
       <r>    1.5733    0.0000 </r>
       <r>    1.6399    0.0000 </r>
       <r>    1.8316    0.0000 </r>
       <r>    1.9124    0.0000 </r>
       <r>    2.0416    0.0000 </r>
       <r>    2.2255    0.0000 </r>
       <r>    2.2744    0.0000 </r>
       <r>    2.3354    0.0000 </r>
       <r>    2.4263    0.0000 </r>
       <r>    2.7407    0.0000 </r>
       <r>    3.2540    0.0000 </r>
       <r>    3.6124    0.0000 </r>
      </set>
      <set comment="kpoint 4">
       <r>  -31.7414    1.0000 </r>
       <r>  -22.1889    1.0000 </r>
       <r>  -21.8689    1.0000 </r>
       <r>  -21.6600    1.0000 </r>
       <r>  -21.4545    1.0000 </r>
       <r>  -21.0339    1.0000 </r>
       <r>  -20.8983    1.0000 </r>
       <r>  -20.7269    1.0000 </r>
       <r>  -20.4202    1.0000 </r>
       <r>  -20.1616    1.0000 </r>
       <r>  -19.7874    1.0000 </r>
       <r>  -19.6990    1.0000 </r>
       <r>  -19.3260    1.0000 </r>
       <r>  -19.2443    1.0000 </r>
       <r>  -19.0608    1.0000 </r>
       <r>  -18.5909    1.0000 </r>
       <r>  -18.4575    1.0000 </r>
       <r>  -18.1232    1.0000 </r>
       <r>  -18.0610    1.0000 </r>
       <r>  -17.5908    1.0000 </r>
       <r>  -17.4968    1.0000 </r>
       <r>  -17.3008    1.0000 </r>
       <r>  -17.2779    1.0000 </r>
       <r>  -16.8492    1.0000 </r>
       <r>  -16.6582    1.0000 </r>
       <r>  -16.1763    1.0000 </r>
       <r>  -15.9757    1.0000 </r>
       <r>  -15.8482    1.0000 </r>
       <r>  -15.3014    1.0000 </r>
       <r>  -15.1713    1.0000 </r>
       <r>  -15.1343    1.0000 </r>
       <r>  -14.8860    1.0000 </r>
       <r>  -14.7806    1.0000 </r>
       <r>  -14.4780    1.0000 </r>
       <r>  -14.4525    1.0000 </r>
       <r>  -13.7671    1.0000 </r>
       <r>  -13.7597    1.0000 </r>
       <r>  -13.1982    1.0000 </r>
       <r>  -13.0874    1.0000 </r>
       <r>  -12.9315    1.0000 </r>
       <r>  -12.9039    1.0000 </r>
       <r>  -12.5846    1.0000 </r>
       <r>  -12.5497    1.0000 </r>
       <r>  -12.3901    1.0000 </r>
       <r>  -12.0230    1.0000 </r>
       <r>  -11.6624    1.0000 </r>
       <r>  -11.4483    1.0000 </r>
       <r>  -11.2964    1.0000 </r>
       <r>  -11.1247    1.0000 </r>
       <r>  -10.9139    1.0000 </r>
       <r>  -10.8508    1.0000 </r>
       <r>  -10.5851    1.0000 </r>
       <r>  -10.5326    1.0000 </r>
       <r>  -10.2843    1.0000 </r>
       <r>  -10.2368    1.0000 </r>
       <r>  -10.1596    1.0000 </r>
       <r>  -10.0464    1.0000 </r>
       <r>   -9.8534    1.0000 </r>
       <r>   -9.8192    1.0000 </r>
       <r>   -9.6554    1.0000 </r>
       <r>   -9.6056    1.0000 </r>
       <r>   -9.5597    1.0000 </r>
       <r>   -9.5268    1.0000 </r>
       <r>   -9.3684    1.0000 </r>
       <r>   -9.3394    1.0000 </r>
       <r>   -9.2558    1.0000 </r>
       <r>   -9.1755    1.0000 </r>
       <r>   -9.0975    1.0000 </r>
       <r>   -9.0843    1.0000 </r>
       <r>   -8.8645    1.0000 </r>
       <r>   -8.7141    1.0000 </r>
       <r>   -8.6659    1.0000 </r>
       <r>   -8.5048    1.0000 </r>
       <r>   -8.4031    1.0000 </r>
       <r>   -8.2926    1.0000 </r>
       <r>   -8.1341    1.0000 </r>
       <r>   -8.0956    1.0000 </r>
       <r>   -8.0670    1.0000 </r>
       <r>   -7.9702    1.0000 </r>
       <r>   -7.8075    1.0000 </r>
       <r>   -7.6192    1.0000 </r>
       <r>   -7.3600    1.0000 </r>
       <r>   -7.3351    1.0000 </r>
       <r>   -7.2641    1.0000 </r>
       <r>   -7.1918    1.0000 </r>
       <r>   -6.9192    1.0000 </r>
       <r>   -6.8741    1.0000 </r>
       <r>   -6.6968    1.0000 </r>
       <r>   -6.5897    1.0000 </r>
       <r>   -6.3427    1.0000 </r>
       <r>   -6.1868    1.0000 </r>
       <r>   -6.0749    1.0000 </r>
       <r>   -5.9208    1.0000 </r>
       <r>   -5.7399    1.0000 </r>
       <r>   -5.6390    1.0000 </r>
       <r>   -5.3233    1.0000 </r>
       <r>   -5.1150    1.0000 </r>
       <r>   -4.9701    1.0000 </r>
       <r>   -4.9239    1.0000 </r>
       <r>   -4.2687    1.0000 </r>
       <r>   -4.1696    1.0000 </r>
       <r>   -3.3366    1.0000 </r>
       <r>   -3.1369    0.9996 </r>
       <r>   -2.8041    0.0000 </r>
       <r>   -1.5924    0.0000 </r>
       <r>   -1.4237    0.0000 </r>
       <r>   -0.8381    0.0000 </r>
       <r>   -0.8156    0.0000 </r>
       <r>   -0.7078    0.0000 </r>
       <r>   -0.6661    0.0000 </r>
       <r>   -0.1291    0.0000 </r>
       <r>   -0.0064    0.0000 </r>
       <r>    0.2897    0.0000 </r>
       <r>    0.7042    0.0000 </r>
       <r>    0.7293    0.0000 </r>
       <r>    1.0994    0.0000 </r>
       <r>    1.1747    0.0000 </r>
       <r>    1.3669    0.0000 </r>
       <r>    1.4640    0.0000 </r>
       <r>    1.5608    0.0000 </r>
       <r>    1.5776    0.0000 </r>
       <r>    1.7492    0.0000 </r>
       <r>    1.8320    0.0000 </r>
       <r>    2.1806    0.0000 </r>
       <r>    2.3353    0.0000 </r>
       <r>    2.3966    0.0000 </r>
       <r>    2.6166    0.0000 </r>
       <r>    2.7880    0.0000 </r>
       <r>    2.8473    0.0000 </r>
       <r>    3.2028    0.0000 </r>
       <r>    3.5956    0.0000 </r>
       <r>    4.1781    0.0000 </r>
      </set>
      <set comment="kpoint 5">
       <r>  -31.7415    1.0000 </r>
       <r>  -22.0797    1.0000 </r>
       <r>  -22.0083    1.0000 </r>
       <r>  -21.8004    1.0000 </r>
       <r>  -21.1703    1.0000 </r>
       <r>  -21.1518    1.0000 </r>
       <r>  -20.8666    1.0000 </r>
       <r>  -20.4115    1.0000 </r>
       <r>  -20.3411    1.0000 </r>
       <r>  -20.1706    1.0000 </r>
       <r>  -20.1521    1.0000 </r>
       <r>  -20.1423    1.0000 </r>
       <r>  -19.5683    1.0000 </r>
       <r>  -18.8265    1.0000 </r>
       <r>  -18.6708    1.0000 </r>
       <r>  -18.3716    1.0000 </r>
       <r>  -18.3467    1.0000 </r>
       <r>  -18.3410    1.0000 </r>
       <r>  -17.9281    1.0000 </r>
       <r>  -17.8010    1.0000 </r>
       <r>  -17.5978    1.0000 </r>
       <r>  -17.2664    1.0000 </r>
       <r>  -17.1520    1.0000 </r>
       <r>  -17.1199    1.0000 </r>
       <r>  -16.5434    1.0000 </r>
       <r>  -16.4397    1.0000 </r>
       <r>  -16.2854    1.0000 </r>
       <r>  -15.8053    1.0000 </r>
       <r>  -15.6267    1.0000 </r>
       <r>  -15.1775    1.0000 </r>
       <r>  -14.9699    1.0000 </r>
       <r>  -14.6535    1.0000 </r>
       <r>  -13.9618    1.0000 </r>
       <r>  -13.9382    1.0000 </r>
       <r>  -13.9214    1.0000 </r>
       <r>  -13.8725    1.0000 </r>
       <r>  -13.8602    1.0000 </r>
       <r>  -13.7931    1.0000 </r>
       <r>  -13.6755    1.0000 </r>
       <r>  -13.4943    1.0000 </r>
       <r>  -13.0380    1.0000 </r>
       <r>  -12.4770    1.0000 </r>
       <r>  -12.2522    1.0000 </r>
       <r>  -12.0780    1.0000 </r>
       <r>  -11.8230    1.0000 </r>
       <r>  -11.7721    1.0000 </r>
       <r>  -11.5608    1.0000 </r>
       <r>  -11.5453    1.0000 </r>
       <r>  -11.5212    1.0000 </r>
       <r>  -10.9271    1.0000 </r>
       <r>  -10.8181    1.0000 </r>
       <r>  -10.5300    1.0000 </r>
       <r>  -10.2082    1.0000 </r>
       <r>  -10.2037    1.0000 </r>
       <r>  -10.1898    1.0000 </r>
       <r>  -10.0942    1.0000 </r>
       <r>  -10.0528    1.0000 </r>
       <r>  -10.0227    1.0000 </r>
       <r>   -9.9035    1.0000 </r>
       <r>   -9.7502    1.0000 </r>
       <r>   -9.7481    1.0000 </r>
       <r>   -9.5647    1.0000 </r>
       <r>   -9.4399    1.0000 </r>
       <r>   -9.4080    1.0000 </r>
       <r>   -9.1951    1.0000 </r>
       <r>   -9.0479    1.0000 </r>
       <r>   -9.0323    1.0000 </r>
       <r>   -8.9022    1.0000 </r>
       <r>   -8.8830    1.0000 </r>
       <r>   -8.6869    1.0000 </r>
       <r>   -8.6440    1.0000 </r>
       <r>   -8.6298    1.0000 </r>
       <r>   -8.6244    1.0000 </r>
       <r>   -8.5821    1.0000 </r>
       <r>   -8.3748    1.0000 </r>
       <r>   -8.2518    1.0000 </r>
       <r>   -8.1668    1.0000 </r>
       <r>   -8.0332    1.0000 </r>
       <r>   -7.9853    1.0000 </r>
       <r>   -7.8786    1.0000 </r>
       <r>   -7.8604    1.0000 </r>
       <r>   -7.8537    1.0000 </r>
       <r>   -7.2252    1.0000 </r>
       <r>   -7.1807    1.0000 </r>
       <r>   -7.1288    1.0000 </r>
       <r>   -6.8884    1.0000 </r>
       <r>   -6.7235    1.0000 </r>
       <r>   -6.6094    1.0000 </r>
       <r>   -6.4557    1.0000 </r>
       <r>   -6.2693    1.0000 </r>
       <r>   -6.0988    1.0000 </r>
       <r>   -5.9168    1.0000 </r>
       <r>   -5.9087    1.0000 </r>
       <r>   -5.9014    1.0000 </r>
       <r>   -5.4522    1.0000 </r>
       <r>   -5.4239    1.0000 </r>
       <r>   -5.1208    1.0000 </r>
       <r>   -5.0141    1.0000 </r>
       <r>   -4.9782    1.0000 </r>
       <r>   -4.9618    1.0000 </r>
       <r>   -3.7346    1.0000 </r>
       <r>   -3.4575    1.0000 </r>
       <r>   -3.2810    1.0000 </r>
       <r>   -2.3860    0.0000 </r>
       <r>   -2.2244    0.0000 </r>
       <r>   -0.9273    0.0000 </r>
       <r>   -0.8815    0.0000 </r>
       <r>   -0.8648    0.0000 </r>
       <r>   -0.5415    0.0000 </r>
       <r>   -0.2634    0.0000 </r>
       <r>   -0.2102    0.0000 </r>
       <r>    0.2494    0.0000 </r>
       <r>    0.2564    0.0000 </r>
       <r>    0.2661    0.0000 </r>
       <r>    0.5949    0.0000 </r>
       <r>    0.7924    0.0000 </r>
       <r>    0.9482    0.0000 </r>
       <r>    0.9726    0.0000 </r>
       <r>    1.0610    0.0000 </r>
       <r>    1.7335    0.0000 </r>
       <r>    1.7460    0.0000 </r>
       <r>    1.7655    0.0000 </r>
       <r>    1.8264    0.0000 </r>
       <r>    2.1201    0.0000 </r>
       <r>    2.1233    0.0000 </r>
       <r>    2.1258    0.0000 </r>
       <r>    2.2455    0.0000 </r>
       <r>    2.2477    0.0000 </r>
       <r>    2.3612    0.0000 </r>
       <r>    2.9993    0.0000 </r>
       <r>    3.0132    0.0000 </r>
       <r>    3.0390    0.0000 </r>
      </set>
     </set>
    </set>
   </array>
  </eigenvalues>
  <separator name="orbital magnetization" >
   <v name="MAGDIPOLOUT">      0.00000000      0.00000000      0.00000000</v>
  </separator>
  <dos>
   <i name="efermi">     -3.01726143 </i>
   <total>
    <array>
     <dimension dim="1">gridpoints</dimension>
     <dimension dim="2">spin</dimension>
     <field>energy</field>
     <field>total</field>
     <field>integrated</field>
     <set>
      <set comment="spin 1">
       <r>   -33.5375     0.0000     0.0000 </r>
       <r>   -33.4058     0.0000     0.0000 </r>
       <r>   -33.2741     0.0000     0.0000 </r>
       <r>   -33.1424     0.0000     0.0000 </r>
       <r>   -33.0107     0.0000     0.0000 </r>
       <r>   -32.8789     0.0000     0.0000 </r>
       <r>   -32.7472     0.0000     0.0000 </r>
       <r>   -32.6155     0.0000     0.0000 </r>
       <r>   -32.4838     0.0000     0.0000 </r>
       <r>   -32.3521     0.0000     0.0000 </r>
       <r>   -32.2204     0.0000     0.0000 </r>
       <r>   -32.0887     0.0000     0.0000 </r>
       <r>   -31.9570     0.0000     0.0000 </r>
       <r>   -31.8253     0.1344     0.0177 </r>
       <r>   -31.6936    13.7150     1.8240 </r>
       <r>   -31.5619     1.3360     2.0000 </r>
       <r>   -31.4302     0.0000     2.0000 </r>
       <r>   -31.2985     0.0000     2.0000 </r>
       <r>   -31.1668     0.0000     2.0000 </r>
       <r>   -31.0351     0.0000     2.0000 </r>
       <r>   -30.9034     0.0000     2.0000 </r>
       <r>   -30.7717     0.0000     2.0000 </r>
       <r>   -30.6400     0.0000     2.0000 </r>
       <r>   -30.5083     0.0000     2.0000 </r>
       <r>   -30.3765     0.0000     2.0000 </r>
       <r>   -30.2448     0.0000     2.0000 </r>
       <r>   -30.1131     0.0000     2.0000 </r>
       <r>   -29.9814     0.0000     2.0000 </r>
       <r>   -29.8497     0.0000     2.0000 </r>
       <r>   -29.7180     0.0000     2.0000 </r>
       <r>   -29.5863     0.0000     2.0000 </r>
       <r>   -29.4546     0.0000     2.0000 </r>
       <r>   -29.3229     0.0000     2.0000 </r>
       <r>   -29.1912     0.0000     2.0000 </r>
       <r>   -29.0595     0.0000     2.0000 </r>
       <r>   -28.9278     0.0000     2.0000 </r>
       <r>   -28.7961     0.0000     2.0000 </r>
       <r>   -28.6644     0.0000     2.0000 </r>
       <r>   -28.5327     0.0000     2.0000 </r>
       <r>   -28.4010     0.0000     2.0000 </r>
       <r>   -28.2693     0.0000     2.0000 </r>
       <r>   -28.1376     0.0000     2.0000 </r>
       <r>   -28.0059     0.0000     2.0000 </r>
       <r>   -27.8741     0.0000     2.0000 </r>
       <r>   -27.7424     0.0000     2.0000 </r>
       <r>   -27.6107     0.0000     2.0000 </r>
       <r>   -27.4790     0.0000     2.0000 </r>
       <r>   -27.3473     0.0000     2.0000 </r>
       <r>   -27.2156     0.0000     2.0000 </r>
       <r>   -27.0839     0.0000     2.0000 </r>
       <r>   -26.9522     0.0000     2.0000 </r>
       <r>   -26.8205     0.0000     2.0000 </r>
       <r>   -26.6888     0.0000     2.0000 </r>
       <r>   -26.5571     0.0000     2.0000 </r>
       <r>   -26.4254     0.0000     2.0000 </r>
       <r>   -26.2937     0.0000     2.0000 </r>
       <r>   -26.1620     0.0000     2.0000 </r>
       <r>   -26.0303     0.0000     2.0000 </r>
       <r>   -25.8986     0.0000     2.0000 </r>
       <r>   -25.7669     0.0000     2.0000 </r>
       <r>   -25.6352     0.0000     2.0000 </r>
       <r>   -25.5034     0.0000     2.0000 </r>
       <r>   -25.3717     0.0000     2.0000 </r>
       <r>   -25.2400     0.0000     2.0000 </r>
       <r>   -25.1083     0.0000     2.0000 </r>
       <r>   -24.9766     0.0000     2.0000 </r>
       <r>   -24.8449     0.0000     2.0000 </r>
       <r>   -24.7132     0.0000     2.0000 </r>
       <r>   -24.5815     0.0000     2.0000 </r>
       <r>   -24.4498     0.0000     2.0000 </r>
       <r>   -24.3181     0.0000     2.0000 </r>
       <r>   -24.1864     0.0000     2.0000 </r>
       <r>   -24.0547     0.0000     2.0000 </r>
       <r>   -23.9230     0.0000     2.0000 </r>
       <r>   -23.7913     0.0000     2.0000 </r>
       <r>   -23.6596     0.0000     2.0000 </r>
       <r>   -23.5279     0.0000     2.0000 </r>
       <r>   -23.3962     0.0000     2.0000 </r>
       <r>   -23.2645     0.0000     2.0000 </r>
       <r>   -23.1328     0.0000     2.0000 </r>
       <r>   -23.0010     0.0000     2.0000 </r>
       <r>   -22.8693     0.0000     2.0000 </r>
       <r>   -22.7376     0.0000     2.0000 </r>
       <r>   -22.6059     0.0000     2.0000 </r>
       <r>   -22.4742     0.0000     2.0000 </r>
       <r>   -22.3425     0.0360     2.0047 </r>
       <r>   -22.2108     4.2716     2.5673 </r>
       <r>   -22.0791     9.2810     3.7897 </r>
       <r>   -21.9474     4.9638     4.4435 </r>
       <r>   -21.8157    10.5919     5.8385 </r>
       <r>   -21.6840     5.4499     6.5562 </r>
       <r>   -21.5523     7.8622     7.5917 </r>
       <r>   -21.4206    12.6265     9.2547 </r>
       <r>   -21.2889     5.6529     9.9992 </r>
       <r>   -21.1572     3.6692    10.4825 </r>
       <r>   -21.0255     9.0887    11.6795 </r>
       <r>   -20.8938    10.8294    13.1058 </r>
       <r>   -20.7621    10.1467    14.4422 </r>
       <r>   -20.6304     8.4235    15.5516 </r>
       <r>   -20.4986     0.1797    15.5753 </r>
       <r>   -20.3669    13.0841    17.2985 </r>
       <r>   -20.2352     4.0015    17.8256 </r>
       <r>   -20.1035    18.5682    20.2711 </r>
       <r>   -19.9718     1.3305    20.4463 </r>
       <r>   -19.8401     3.5655    20.9159 </r>
       <r>   -19.7084    13.8915    22.7455 </r>
       <r>   -19.5767     8.4425    23.8574 </r>
       <r>   -19.4450     6.1333    24.6652 </r>
       <r>   -19.3133     6.7492    25.5541 </r>
       <r>   -19.1816    14.1396    27.4164 </r>
       <r>   -19.0499     7.3290    28.3816 </r>
       <r>   -18.9182     4.9007    29.0271 </r>
       <r>   -18.7865     5.2653    29.7205 </r>
       <r>   -18.6548     4.9753    30.3758 </r>
       <r>   -18.5231    14.0386    32.2248 </r>
       <r>   -18.3914    11.3473    33.7193 </r>
       <r>   -18.2597     8.8190    34.8808 </r>
       <r>   -18.1279     4.8391    35.5181 </r>
       <r>   -17.9962    15.2423    37.5256 </r>
       <r>   -17.8645     4.7808    38.1553 </r>
       <r>   -17.7328     3.7924    38.6548 </r>
       <r>   -17.6011     5.5923    39.3913 </r>
       <r>   -17.4694    15.8391    41.4774 </r>
       <r>   -17.3377     4.3210    42.0465 </r>
       <r>   -17.2060    21.4224    44.8679 </r>
       <r>   -17.0743     6.7435    45.7561 </r>
       <r>   -16.9426     3.5367    46.2219 </r>
       <r>   -16.8109     8.7584    47.3754 </r>
       <r>   -16.6792     4.1279    47.9191 </r>
       <r>   -16.5475     8.9525    49.0982 </r>
       <r>   -16.4158     8.9420    50.2759 </r>
       <r>   -16.2841     3.0311    50.6751 </r>
       <r>   -16.1524     9.4173    51.9154 </r>
       <r>   -16.0207     5.7049    52.6668 </r>
       <r>   -15.8890    13.0043    54.3795 </r>
       <r>   -15.7573    11.9574    55.9544 </r>
       <r>   -15.6255     2.0769    56.2279 </r>
       <r>   -15.4938     4.1449    56.7738 </r>
       <r>   -15.3621     2.9303    57.1597 </r>
       <r>   -15.2304    10.1800    58.5005 </r>
       <r>   -15.0987    21.9071    61.3858 </r>
       <r>   -14.9670     4.8757    62.0279 </r>
       <r>   -14.8353    11.3676    63.5251 </r>
       <r>   -14.7036    10.5191    64.9105 </r>
       <r>   -14.5719     6.4088    65.7546 </r>
       <r>   -14.4402    15.5544    67.8032 </r>
       <r>   -14.3085     4.8685    68.4444 </r>
       <r>   -14.1768     1.0796    68.5866 </r>
       <r>   -14.0451     4.0281    69.1171 </r>
       <r>   -13.9134     9.7915    70.4067 </r>
       <r>   -13.7817    17.0787    72.6561 </r>
       <r>   -13.6500    17.8340    75.0049 </r>
       <r>   -13.5183     1.6474    75.2219 </r>
       <r>   -13.3866     2.5296    75.5550 </r>
       <r>   -13.2549     0.5311    75.6250 </r>
       <r>   -13.1231    11.0224    77.0767 </r>
       <r>   -12.9914    13.9140    78.9092 </r>
       <r>   -12.8597    20.5428    81.6148 </r>
       <r>   -12.7280     1.2374    81.7778 </r>
       <r>   -12.5963     4.7196    82.3994 </r>
       <r>   -12.4646    17.7844    84.7417 </r>
       <r>   -12.3329    10.7467    86.1571 </r>
       <r>   -12.2012     3.6186    86.6337 </r>
       <r>   -12.0695     3.4464    87.0876 </r>
       <r>   -11.9378    11.9006    88.6550 </r>
       <r>   -11.8061     3.5020    89.1162 </r>
       <r>   -11.6744    16.0864    91.2349 </r>
       <r>   -11.5427    17.6370    93.5577 </r>
       <r>   -11.4110    13.6796    95.3594 </r>
       <r>   -11.2793     8.2440    96.4452 </r>
       <r>   -11.1476     5.8083    97.2102 </r>
       <r>   -11.0159     7.7105    98.2257 </r>
       <r>   -10.8842    12.7922    99.9105 </r>
       <r>   -10.7525    17.0965   102.1622 </r>
       <r>   -10.6207     2.1109   102.4402 </r>
       <r>   -10.4890    20.5436   105.1459 </r>
       <r>   -10.3573     3.8182   105.6488 </r>
       <r>   -10.2256    24.4826   108.8733 </r>
       <r>   -10.0939    25.5064   112.2326 </r>
       <r>    -9.9622    18.4151   114.6580 </r>
       <r>    -9.8305    14.6864   116.5923 </r>
       <r>    -9.6988    17.5589   118.9049 </r>
       <r>    -9.5671    27.7769   122.5632 </r>
       <r>    -9.4354    20.5365   125.2680 </r>
       <r>    -9.3037    27.3342   128.8681 </r>
       <r>    -9.1720    23.4285   131.9537 </r>
       <r>    -9.0403    28.8482   135.7532 </r>
       <r>    -8.9086    19.9569   138.3816 </r>
       <r>    -8.7769    17.6664   140.7084 </r>
       <r>    -8.6452    23.5555   143.8108 </r>
       <r>    -8.5135    17.3598   146.0971 </r>
       <r>    -8.3818    16.2030   148.2312 </r>
       <r>    -8.2500    15.5921   150.2847 </r>
       <r>    -8.1183    15.8480   152.3720 </r>
       <r>    -7.9866    28.5911   156.1376 </r>
       <r>    -7.8549    16.3483   158.2908 </r>
       <r>    -7.7232    16.2540   160.4315 </r>
       <r>    -7.5915     8.2157   161.5135 </r>
       <r>    -7.4598     2.0337   161.7814 </r>
       <r>    -7.3281    17.9331   164.1433 </r>
       <r>    -7.1964    31.7913   168.3304 </r>
       <r>    -7.0647    15.9094   170.4257 </r>
       <r>    -6.9330     4.5743   171.0282 </r>
       <r>    -6.8013    19.1451   173.5497 </r>
       <r>    -6.6696    12.7057   175.2231 </r>
       <r>    -6.5379    15.9116   177.3187 </r>
       <r>    -6.4062     7.0731   178.2503 </r>
       <r>    -6.2745    12.6437   179.9156 </r>
       <r>    -6.1428    15.1468   181.9105 </r>
       <r>    -6.0111    13.8370   183.7329 </r>
       <r>    -5.8794    20.2309   186.3974 </r>
       <r>    -5.7476     7.9139   187.4397 </r>
       <r>    -5.6159    13.5113   189.2192 </r>
       <r>    -5.4842     3.3164   189.6560 </r>
       <r>    -5.3525     7.9352   190.7011 </r>
       <r>    -5.2208     8.5727   191.8302 </r>
       <r>    -5.0891    11.8234   193.3874 </r>
       <r>    -4.9574    18.6472   195.8433 </r>
       <r>    -4.8257    14.7826   197.7903 </r>
       <r>    -4.6940     3.1907   198.2105 </r>
       <r>    -4.5623     0.0890   198.2222 </r>
       <r>    -4.4306     0.0000   198.2222 </r>
       <r>    -4.2989     3.1465   198.6366 </r>
       <r>    -4.1672    17.2978   200.9148 </r>
       <r>    -4.0355     4.8639   201.5555 </r>
       <r>    -3.9038     0.0008   201.5556 </r>
       <r>    -3.7721     0.4889   201.6199 </r>
       <r>    -3.6404     2.8727   201.9983 </r>
       <r>    -3.5087     0.2632   202.0330 </r>
       <r>    -3.3770     4.4381   202.6175 </r>
       <r>    -3.2452    12.2920   204.2364 </r>
       <r>    -3.1135    10.7983   205.6586 </r>
       <r>    -2.9818     2.6463   206.0071 </r>
       <r>    -2.8501     2.5658   206.3451 </r>
       <r>    -2.7184     9.1139   207.5454 </r>
       <r>    -2.5867     0.0770   207.5556 </r>
       <r>    -2.4550     0.0861   207.5669 </r>
       <r>    -2.3233     3.1688   207.9842 </r>
       <r>    -2.1916     2.8973   208.3658 </r>
       <r>    -2.0599     0.5969   208.4444 </r>
       <r>    -1.9282     0.0000   208.4444 </r>
       <r>    -1.7965     0.0000   208.4444 </r>
       <r>    -1.6648     0.1956   208.4702 </r>
       <r>    -1.5331     9.5179   209.7238 </r>
       <r>    -1.4014    12.3412   211.3492 </r>
       <r>    -1.2697     3.2543   211.7778 </r>
       <r>    -1.1380     0.0002   211.7778 </r>
       <r>    -1.0063     1.2437   211.9416 </r>
       <r>    -0.8745    10.6317   213.3418 </r>
       <r>    -0.7428    23.3738   216.4203 </r>
       <r>    -0.6111    18.2818   218.8281 </r>
       <r>    -0.4794     5.3289   219.5299 </r>
       <r>    -0.3477     0.2235   219.5594 </r>
       <r>    -0.2160     4.5826   220.1629 </r>
       <r>    -0.0843    11.3935   221.6635 </r>
       <r>     0.0474    10.3302   223.0241 </r>
       <r>     0.1791     0.8210   223.1322 </r>
       <r>     0.3108    16.6587   225.3262 </r>
       <r>     0.4425     7.1795   226.2718 </r>
       <r>     0.5742     3.3322   226.7107 </r>
       <r>     0.7059    11.0562   228.1668 </r>
       <r>     0.8376    16.7164   230.3685 </r>
       <r>     0.9693     6.2865   231.1964 </r>
       <r>     1.1010    11.1545   232.6655 </r>
       <r>     1.2327    14.7715   234.6110 </r>
       <r>     1.3644     8.2346   235.6956 </r>
       <r>     1.4961    15.1281   237.6880 </r>
       <r>     1.6279    22.9297   240.7080 </r>
       <r>     1.7596    15.7256   242.7791 </r>
       <r>     1.8913    27.3215   246.3775 </r>
       <r>     2.0230     8.2325   247.4618 </r>
       <r>     2.1547    16.1916   249.5943 </r>
       <r>     2.2864    26.2666   253.0537 </r>
       <r>     2.4181    28.7752   256.8436 </r>
       <r>     2.5498     7.2364   257.7967 </r>
       <r>     2.6815     6.3832   258.6374 </r>
       <r>     2.8132     8.9684   259.8186 </r>
       <r>     2.9449     5.0541   260.4842 </r>
       <r>     3.0766     9.1646   261.6913 </r>
       <r>     3.2083     2.8832   262.0710 </r>
       <r>     3.3400     4.4973   262.6633 </r>
       <r>     3.4717     0.0264   262.6668 </r>
       <r>     3.6034     3.3337   263.1059 </r>
       <r>     3.7351     3.4135   263.5554 </r>
       <r>     3.8668     0.0010   263.5556 </r>
       <r>     3.9985     0.0000   263.5556 </r>
       <r>     4.1303     0.2962   263.5946 </r>
       <r>     4.2620     3.0484   263.9961 </r>
       <r>     4.3937     0.0300   264.0000 </r>
       <r>     4.5254     0.0000   264.0000 </r>
       <r>     4.6571     0.0000   264.0000 </r>
       <r>     4.7888     0.0000   264.0000 </r>
       <r>     4.9205     0.0000   264.0000 </r>
       <r>     5.0522     0.0000   264.0000 </r>
       <r>     5.1839     0.0000   264.0000 </r>
       <r>     5.3156     0.0000   264.0000 </r>
       <r>     5.4473     0.0000   264.0000 </r>
       <r>     5.5790     0.0000   264.0000 </r>
       <r>     5.7107     0.0000   264.0000 </r>
       <r>     5.8424     0.0000   264.0000 </r>
       <r>     5.9741     0.0000   264.0000 </r>
      </set>
     </set>
    </array>
   </total>
  </dos>
 </calculation>
 <structure name="finalpos" >
  <crystal>
   <varray name="basis" >
    <v>      12.30000019       0.00000000       0.00000000 </v>
    <v>       6.15000080      10.65211222       0.00000000 </v>
    <v>       0.00000000       0.00000000      20.00000000 </v>
   </varray>
   <i name="volume">   2620.41964732 </i>
   <varray name="rec_basis" >
    <v>       0.08130081      -0.04693905       0.00000000 </v>
    <v>       0.00000000       0.09387809       0.00000000 </v>
    <v>       0.00000000       0.00000000       0.05000000 </v>
   </varray>
  </crystal>
  <varray name="positions" >
   <v>       0.00000000       0.00000000       0.41799748 </v>
   <v>       0.20000000       0.00000000       0.41799748 </v>
   <v>       0.40000000       0.00000000       0.41799748 </v>
   <v>       0.60000000       0.99918699       0.41799748 </v>
   <v>       0.80000000       0.00000000       0.41799748 </v>
   <v>       0.00000000       0.20000000       0.41799748 </v>
   <v>       0.20000000       0.20000000       0.41799748 </v>
   <v>       0.40000000       0.20000000       0.41799748 </v>
   <v>       0.60000000       0.20000000       0.41799748 </v>
   <v>       0.80000000       0.20000000       0.41799748 </v>
   <v>       0.00000000       0.40000000       0.41799748 </v>
   <v>       0.20000000       0.40000000       0.41799748 </v>
   <v>       0.40000000       0.40000000       0.41799748 </v>
   <v>       0.60000000       0.40000000       0.41799748 </v>
   <v>       0.80000000       0.40000000       0.41799748 </v>
   <v>       0.00000000       0.60000000       0.41799748 </v>
   <v>       0.20000000       0.60000000       0.41799748 </v>
   <v>       0.40000000       0.60000000       0.41799748 </v>
   <v>       0.60000000       0.60000000       0.41799748 </v>
   <v>       0.80000000       0.60000000       0.41799748 </v>
   <v>       0.00000000       0.80000000       0.41799748 </v>
   <v>       0.20000000       0.80000000       0.41799748 </v>
   <v>       0.40000000       0.80000000       0.41799748 </v>
   <v>       0.60000000       0.80000000       0.41799748 </v>
   <v>       0.80000000       0.80000000       0.41799748 </v>
   <v>       0.06666667       0.06666660       0.41800609 </v>
   <v>       0.26666667       0.06666660       0.41800609 </v>
   <v>       0.46666667       0.06666660       0.41800609 </v>
   <v>       0.66666667       0.06666660       0.41800609 </v>
   <v>       0.86666667       0.06666660       0.41800609 </v>
   <v>       0.06666667       0.26666660       0.41800609 </v>
   <v>       0.26666667       0.26666660       0.41800609 </v>
   <v>       0.46666667       0.26666660       0.41800609 </v>
   <v>       0.66666667       0.26666660       0.41800609 </v>
   <v>       0.86666667       0.26666660       0.41800609 </v>
   <v>       0.06666667       0.46666660       0.41800609 </v>
   <v>       0.26666667       0.46666660       0.41800609 </v>
   <v>       0.46666667       0.46666660       0.41800609 </v>
   <v>       0.66666667       0.46666660       0.41800609 </v>
   <v>       0.86666667       0.46666660       0.41800609 </v>
   <v>       0.06666667       0.66666660       0.41800609 </v>
   <v>       0.26666667       0.66666660       0.41800609 </v>
   <v>       0.46666667       0.66666660       0.41800609 </v>
   <v>       0.66666667       0.66666660       0.41800609 </v>
   <v>       0.86666667       0.66666660       0.41800609 </v>
   <v>       0.06666667       0.86666660       0.41800609 </v>
   <v>       0.26666667       0.86666660       0.41800609 </v>
   <v>       0.46666667       0.86666660       0.41800609 </v>
   <v>       0.66666667       0.86666660       0.41800609 </v>
   <v>       0.86666667       0.86666660       0.41800609 </v>
   <v>       0.40000000       0.40000000       0.46800609 </v>
  </varray>
  <varray name="velocities" >
   <v>       0.00000000       0.00000000       0.00000000 </v>
   <v>       0.00000000       0.00000000       0.00000000 </v>
   <v>       0.00000000       0.00000000       0.00000000 </v>
   <v>       0.00000000       0.00000000       0.00000000 </v>
   <v>       0.00000000       0.00000000       0.00000000 </v>
   <v>       0.00000000       0.00000000       0.00000000 </v>
   <v>       0.00000000       0.00000000       0.00000000 </v>
   <v>       0.00000000       0.00000000       0.00000000 </v>
   <v>       0.00000000       0.00000000       0.00000000 </v>
   <v>       0.00000000       0.00000000       0.00000000 </v>
   <v>       0.00000000       0.00000000       0.00000000 </v>
   <v>       0.00000000       0.00000000       0.00000000 </v>
   <v>       0.00000000       0.00000000       0.00000000 </v>
   <v>       0.00000000       0.00000000       0.00000000 </v>
   <v>       0.00000000       0.00000000       0.00000000 </v>
   <v>       0.00000000       0.00000000       0.00000000 </v>
   <v>       0.00000000       0.00000000       0.00000000 </v>
   <v>       0.00000000       0.00000000       0.00000000 </v>
   <v>       0.00000000       0.00000000       0.00000000 </v>
   <v>       0.00000000       0.00000000       0.00000000 </v>
   <v>       0.00000000       0.00000000       0.00000000 </v>
   <v>       0.00000000       0.00000000       0.00000000 </v>
   <v>       0.00000000       0.00000000       0.00000000 </v>
   <v>       0.00000000       0.00000000       0.00000000 </v>
   <v>       0.00000000       0.00000000       0.00000000 </v>
   <v>       0.00000000       0.00000000       0.00000000 </v>
   <v>       0.00000000       0.00000000       0.00000000 </v>
   <v>       0.00000000       0.00000000       0.00000000 </v>
   <v>       0.00000000       0.00000000       0.00000000 </v>
   <v>       0.00000000       0.00000000       0.00000000 </v>
   <v>       0.00000000       0.00000000       0.00000000 </v>
   <v>       0.00000000       0.00000000       0.00000000 </v>
   <v>       0.00000000       0.00000000       0.00000000 </v>
   <v>       0.00000000       0.00000000       0.00000000 </v>
   <v>       0.00000000       0.00000000       0.00000000 </v>
   <v>       0.00000000       0.00000000       0.00000000 </v>
   <v>       0.00000000       0.00000000       0.00000000 </v>
   <v>       0.00000000       0.00000000       0.00000000 </v>
   <v>       0.00000000       0.00000000       0.00000000 </v>
   <v>       0.00000000       0.00000000       0.00000000 </v>
   <v>       0.00000000       0.00000000       0.00000000 </v>
   <v>       0.00000000       0.00000000       0.00000000 </v>
   <v>       0.00000000       0.00000000       0.00000000 </v>
   <v>       0.00000000       0.00000000       0.00000000 </v>
   <v>       0.00000000       0.00000000       0.00000000 </v>
   <v>       0.00000000       0.00000000       0.00000000 </v>
   <v>       0.00000000       0.00000000       0.00000000 </v>
   <v>       0.00000000       0.00000000       0.00000000 </v>
   <v>       0.00000000       0.00000000       0.00000000 </v>
   <v>       0.00000000       0.00000000       0.00000000 </v>
   <v>       0.00000000       0.00000000       0.00000000 </v>
  </varray>
 </structure>
</modeling>
