                                                                                     
                             WELCOME TO ABACUS v3.0                                  
                                                                                     
               'Atomic-orbital Based Ab-initio Computation at UStc'                  
                                                                                     
                     Website: http://abacus.ustc.edu.cn/                             
                                                                                     
    Version: Parallel, in development
    Processor Number is 16
    Start Time is Fri Nov  8 17:12:45 2024
                                                                                     
 ------------------------------------------------------------------------------------

 READING GENERAL INFORMATION
                           global_out_dir = OUT.ABACUS/
                           global_in_card = INPUT
                               pseudo_dir = 
                              orbital_dir = 
                                    DRANK = 1
                                    DSIZE = 16
                                   DCOLOR = 1
                                    GRANK = 1
                                    GSIZE = 1
 The esolver type has been set to : ksdft_lcao




 >>>>>>>>>>>>>>>>>>>>>>>>>>>>>>>>>>>>>>>>>>>>>>>>>>>>>>>>>>>>>>>>>>>>>>
 |                                                                    |
 | Reading atom information in unitcell:                              |
 | From the input file and the structure file we know the number of   |
 | different elments in this unitcell, then we list the detail        |
 | information for each element, especially the zeta and polar atomic |
 | orbital number for each element. The total atom number is counted. |
 | We calculate the nearest atom distance for each atom and show the  |
 | Cartesian and Direct coordinates for each atom. We list the file   |
 | address for atomic orbitals. The volume and the lattice vectors    |
 | in real and reciprocal space is also shown.                        |
 |                                                                    |
 <<<<<<<<<<<<<<<<<<<<<<<<<<<<<<<<<<<<<<<<<<<<<<<<<<<<<<<<<<<<<<<<<<<<<<




 READING UNITCELL INFORMATION
                                    ntype = 2
                 atom label for species 1 = C
                 atom label for species 2 = O
                  lattice constant (Bohr) = 1.88973
              lattice constant (Angstrom) = 1

 READING ATOM TYPE 1
                               atom label = C
                      L=0, number of zeta = 2
                      L=1, number of zeta = 2
                      L=2, number of zeta = 1
             number of atom for this type = 50
                      start magnetization = FALSE
                      start magnetization = FALSE
                      start magnetization = FALSE
                      start magnetization = FALSE
                      start magnetization = FALSE
                      start magnetization = FALSE
                      start magnetization = FALSE
                      start magnetization = FALSE
                      start magnetization = FALSE
                      start magnetization = FALSE
                      start magnetization = FALSE
                      start magnetization = FALSE
                      start magnetization = FALSE
                      start magnetization = FALSE
                      start magnetization = FALSE
                      start magnetization = FALSE
                      start magnetization = FALSE
                      start magnetization = FALSE
                      start magnetization = FALSE
                      start magnetization = FALSE
                      start magnetization = FALSE
                      start magnetization = FALSE
                      start magnetization = FALSE
                      start magnetization = FALSE
                      start magnetization = FALSE
                      start magnetization = FALSE
                      start magnetization = FALSE
                      start magnetization = FALSE
                      start magnetization = FALSE
                      start magnetization = FALSE
                      start magnetization = FALSE
                      start magnetization = FALSE
                      start magnetization = FALSE
                      start magnetization = FALSE
                      start magnetization = FALSE
                      start magnetization = FALSE
                      start magnetization = FALSE
                      start magnetization = FALSE
                      start magnetization = FALSE
                      start magnetization = FALSE
                      start magnetization = FALSE
                      start magnetization = FALSE
                      start magnetization = FALSE
                      start magnetization = FALSE
                      start magnetization = FALSE
                      start magnetization = FALSE
                      start magnetization = FALSE
                      start magnetization = FALSE
                      start magnetization = FALSE
                      start magnetization = FALSE

 READING ATOM TYPE 2
                               atom label = O
                      L=0, number of zeta = 2
                      L=1, number of zeta = 2
                      L=2, number of zeta = 1
             number of atom for this type = 1
                      start magnetization = FALSE

                        TOTAL ATOM NUMBER = 51

 DIRECT COORDINATES
         atom                   x                   y                   z                 mag                  vx                  vy                  vz
      taud_C1            0.133333            0.133333                 0.5                   0                   0                   0                   0
      taud_C2            0.333333            0.133333                 0.5                   0                   0                   0                   0
      taud_C3            0.533333            0.133333                 0.5                   0                   0                   0                   0
      taud_C4            0.733333            0.133333                 0.5                   0                   0                   0                   0
      taud_C5            0.933333            0.133333                 0.5                   0                   0                   0                   0
      taud_C6            0.133333            0.333333                 0.5                   0                   0                   0                   0
      taud_C7            0.333333            0.333333                 0.5                   0                   0                   0                   0
      taud_C8            0.533333            0.333333                 0.5                   0                   0                   0                   0
      taud_C9            0.733333            0.333333                 0.5                   0                   0                   0                   0
     taud_C10            0.933333            0.333333                 0.5                   0                   0                   0                   0
     taud_C11            0.133333            0.533333                 0.5                   0                   0                   0                   0
     taud_C12            0.333333            0.533333                 0.5                   0                   0                   0                   0
     taud_C13            0.533333            0.533333                 0.5                   0                   0                   0                   0
     taud_C14            0.733333            0.533333                 0.5                   0                   0                   0                   0
     taud_C15            0.933333            0.533333                 0.5                   0                   0                   0                   0
     taud_C16            0.133333            0.733333                 0.5                   0                   0                   0                   0
     taud_C17            0.333333            0.733333                 0.5                   0                   0                   0                   0
     taud_C18            0.533333            0.733333                 0.5                   0                   0                   0                   0
     taud_C19            0.733333            0.733333                 0.5                   0                   0                   0                   0
     taud_C20            0.933333            0.733333                 0.5                   0                   0                   0                   0
     taud_C21            0.133333            0.933333                 0.5                   0                   0                   0                   0
     taud_C22            0.333333            0.933333                 0.5                   0                   0                   0                   0
     taud_C23            0.533333            0.933333                 0.5                   0                   0                   0                   0
     taud_C24            0.733333            0.933333                 0.5                   0                   0                   0                   0
     taud_C25            0.933333            0.933333                 0.5                   0                   0                   0                   0
     taud_C26           0.0666667           0.0666667                 0.5                   0                   0                   0                   0
     taud_C27            0.266667           0.0666667                 0.5                   0                   0                   0                   0
     taud_C28            0.466667           0.0666667                 0.5                   0                   0                   0                   0
     taud_C29            0.666667           0.0666667                 0.5                   0                   0                   0                   0
     taud_C30            0.866667           0.0666667                 0.5                   0                   0                   0                   0
     taud_C31           0.0666667            0.266667                 0.5                   0                   0                   0                   0
     taud_C32            0.266667            0.266667                 0.5                   0                   0                   0                   0
     taud_C33            0.466667            0.266667                 0.5                   0                   0                   0                   0
     taud_C34            0.666667            0.266667                 0.5                   0                   0                   0                   0
     taud_C35            0.866667            0.266667                 0.5                   0                   0                   0                   0
     taud_C36           0.0666667            0.466667                 0.5                   0                   0                   0                   0
     taud_C37            0.266667            0.466667                 0.5                   0                   0                   0                   0
     taud_C38            0.466667            0.466667                 0.5                   0                   0                   0                   0
     taud_C39            0.666667            0.466667                 0.5                   0                   0                   0                   0
     taud_C40            0.866667            0.466667                 0.5                   0                   0                   0                   0
     taud_C41           0.0666667            0.666667                 0.5                   0                   0                   0                   0
     taud_C42            0.266667            0.666667                 0.5                   0                   0                   0                   0
     taud_C43            0.466667            0.666667                 0.5                   0                   0                   0                   0
     taud_C44            0.666667            0.666667                 0.5                   0                   0                   0                   0
     taud_C45            0.866667            0.666667                 0.5                   0                   0                   0                   0
     taud_C46           0.0666667            0.866667                 0.5                   0                   0                   0                   0
     taud_C47            0.266667            0.866667                 0.5                   0                   0                   0                   0
     taud_C48            0.466667            0.866667                 0.5                   0                   0                   0                   0
     taud_C49            0.666667            0.866667                 0.5                   0                   0                   0                   0
     taud_C50            0.866667            0.866667                 0.5                   0                   0                   0                   0
      taud_O1            0.466667            0.466667                0.55                   0                   0                   0                   0


 READING ORBITAL FILE NAMES FOR LCAO
 orbital file: C_gga_6au_60Ry_2s2p1d.orb
 orbital file: O_gga_6au_60Ry_2s2p1d.orb

                          Volume (Bohr^3) = 13754.8
                             Volume (A^3) = 2038.24

 Lattice vectors: (Cartesian coordinate: in unit of a_0)
             +12.3191                  +0                  +0
             +6.17281            +10.6763                  +0
                   +0                  +0            +15.4974
 Reciprocal vectors: (Cartesian coordinate: in unit of 2 pi/a_0)
           +0.0811751          -0.0469338                  +0
                   -0          +0.0936657                  -0
                   +0                  -0          +0.0645268




 >>>>>>>>>>>>>>>>>>>>>>>>>>>>>>>>>>>>>>>>>>>>>>>>>>>>>>>>>>>>>>>>>>>>>>
 |                                                                    |
 | Reading pseudopotentials files:                                    |
 | The pseudopotential file is in UPF format. The 'NC' indicates that |
 | the type of pseudopotential is 'norm conserving'. Functional of    |
 | exchange and correlation is decided by 4 given parameters in UPF   |
 | file.  We also read in the 'core correction' if there exists.      |
 | Also we can read the valence electrons number and the maximal      |
 | angular momentum used in this pseudopotential. We also read in the |
 | trail wave function, trail atomic density and local-pseudopotential|
 | on logrithmic grid. The non-local pseudopotential projector is also|
 | read in if there is any.                                           |
 |                                                                    |
 <<<<<<<<<<<<<<<<<<<<<<<<<<<<<<<<<<<<<<<<<<<<<<<<<<<<<<<<<<<<<<<<<<<<<<




                PAO radial cut off (Bohr) = 15

 Read in pseudopotential file is ./C_ONCV_PBE-1.2.upf
                     pseudopotential type = NC
          exchange-correlation functional = PBE
                 nonlocal core correction = 0
                        valence electrons = 4
                                     lmax = 1
                           number of zeta = 0
                     number of projectors = 4
                           L of projector = 0
                           L of projector = 0
                           L of projector = 1
                           L of projector = 1
                PAO radial cut off (Bohr) = 15

 Read in pseudopotential file is ./O_ONCV_PBE-1.2.upf
                     pseudopotential type = NC
          exchange-correlation functional = PBE
                 nonlocal core correction = 0
                        valence electrons = 6
                                     lmax = 1
                           number of zeta = 0
                     number of projectors = 4
                           L of projector = 0
                           L of projector = 0
                           L of projector = 1
                           L of projector = 1

%%%%%%%%%%%%%%%%%%%%%%%%%%%%%%%%%%%%%%%%%%%%%%%%%%%%%%%%%%
WARNING: Some atoms are too close!!!
 38-th   C,   1-th   O (cell: 0  0  0), distance= 1.464 Bohr (0.775 Angstrom)
%%%%%%%%%%%%%%%%%%%%%%%%%%%%%%%%%%%%%%%%%%%%%%%%%%%%%%%%%%

     initial pseudo atomic orbital number = 0
                                   NLOCAL = 663




 >>>>>>>>>>>>>>>>>>>>>>>>>>>>>>>>>>>>>>>>>>>>>>>>>>>>>>>>>>>>>>>>>>>>>>
 |                                                                    |
 | Setup plane waves of charge/potential:                             |
 | Use the energy cutoff and the lattice vectors to generate the      |
 | dimensions of FFT grid. The number of FFT grid on each processor   |
 | is 'nrxx'. The number of plane wave basis in reciprocal space is   |
 | different for charege/potential and wave functions. We also set    |
 | the 'sticks' for the parallel of FFT. The number of plane waves    |
 | is 'npw' in each processor.                                        |
 <<<<<<<<<<<<<<<<<<<<<<<<<<<<<<<<<<<<<<<<<<<<<<<<<<<<<<<<<<<<<<<<<<<<<<





 SETUP THE PLANE WAVE BASIS
 energy cutoff for charge/potential (unit:Ry) = 240
          [fft grid for charge/potential] = 120, 120, 150
                      [fft grid division] = 2, 2, 2
      [big fft grid for charge/potential] = 60, 60, 75
                                     nbxx = 18000
                                     nrxx = 144000

 SETUP PLANE WAVES FOR CHARGE/POTENTIAL
                    number of plane waves = 863891
                         number of sticks = 8975

 PARALLEL PW FOR CHARGE/POTENTIAL
     PROC   COLUMNS(POT)             PW
        1            560          53992
        2            560          53992
        3            561          53995
        4            561          53995
        5            561          53991
        6            561          53991
        7            561          53995
        8            561          53995
        9            561          53993
       10            561          53993
       11            561          53993
       12            561          53993
       13            561          53993
       14            561          53993
       15            561          53995
       16            562          53992
 --------------- sum -------------------
       16           8975         863891
                            number of |g| = 26423
                                  max |g| = 21.7092
                                  min |g| = 0.00879218

 SETUP THE ELECTRONS NUMBER
             electron number of element C = 4
       total electron number of element C = 200
             electron number of element O = 6
       total electron number of element O = 6
            AUTOSET number of electrons:  = 206
 DONE : SETUP UNITCELL Time : 0.187807 (SEC)





 >>>>>>>>>>>>>>>>>>>>>>>>>>>>>>>>>>>>>>>>>>>>>>>>>>>>>>>>>>>>>>>>>>>>>>
 |                                                                    |
 | Setup K-points                                                     |
 | We setup the k-points according to input parameters.               |
 | The reduced k-points are set according to symmetry operations.     |
 | We treat the spin as another set of k-points.                      |
 |                                                                    |
 <<<<<<<<<<<<<<<<<<<<<<<<<<<<<<<<<<<<<<<<<<<<<<<<<<<<<<<<<<<<<<<<<<<<<<





 SETUP K-POINTS
                                    nspin = 1
                   Input type of k points = Monkhorst-Pack(Gamma)
                                   nkstot = 16
                               nkstot_ibz = 10
      IBZ             DirectX             DirectY             DirectZ              Weight    ibz2bz
        1                   0                   0                   0              0.0625         0
        2                0.75                   0                   0               0.125         1
        3                 0.5                   0                   0              0.0625         2
        4                   0                0.75                   0               0.125         4
        5                0.75                0.75                   0               0.125         5
        6                 0.5                0.75                   0               0.125         6
        7                0.25                0.75                   0               0.125         7
        8                   0                 0.5                   0              0.0625         8
        9                0.75                 0.5                   0               0.125         9
       10                 0.5                 0.5                   0              0.0625        10
                               nkstot now = 10

  KPOINTS            DIRECT_X            DIRECT_Y            DIRECT_Z              WEIGHT
        1                   0                   0                   0              0.0625
        2                0.75                   0                   0               0.125
        3                 0.5                   0                   0              0.0625
        4                   0                0.75                   0               0.125
        5                0.75                0.75                   0               0.125
        6                 0.5                0.75                   0               0.125
        7                0.25                0.75                   0               0.125
        8                   0                 0.5                   0              0.0625
        9                0.75                 0.5                   0               0.125
       10                 0.5                 0.5                   0              0.0625

           k-point number in this process = 10
       minimum distributed K point number = 10

  KPOINTS         CARTESIAN_X         CARTESIAN_Y         CARTESIAN_Z              WEIGHT
        1                   0                   0                   0               0.125
        2           0.0608813          -0.0352004                   0                0.25
        3           0.0405875          -0.0234669                   0               0.125
        4                   0           0.0702493                   0                0.25
        5           0.0608813           0.0350489                   0                0.25
        6           0.0405875           0.0467823                   0                0.25
        7           0.0202938           0.0585158                   0                0.25
        8                   0           0.0468328                   0               0.125
        9           0.0608813           0.0116325                   0                0.25
       10           0.0405875           0.0233659                   0               0.125

  KPOINTS            DIRECT_X            DIRECT_Y            DIRECT_Z              WEIGHT
        1                   0                   0                   0               0.125
        2                0.75                   0                   0                0.25
        3                 0.5                   0                   0               0.125
        4                   0                0.75                   0                0.25
        5                0.75                0.75                   0                0.25
        6                 0.5                0.75                   0                0.25
        7                0.25                0.75                   0                0.25
        8                   0                 0.5                   0               0.125
        9                0.75                 0.5                   0                0.25
       10                 0.5                 0.5                   0               0.125
 DONE : INIT K-POINTS Time : 0.201795 (SEC)

                           occupied bands = 103
                                   NLOCAL = 663
                                   NBANDS = 123
                                   NBANDS = 123




 >>>>>>>>>>>>>>>>>>>>>>>>>>>>>>>>>>>>>>>>>>>>>>>>>>>>>>>>>>>>>>>>>>>>>>
 |                                                                    |
 | Setup numerical orbitals:                                          |
 | This part setup: numerical atomic orbitals, non-local projectors   |
 | and neutral potential (1D). The atomic orbitals information        |
 | including the radius, angular momentum and zeta number.            |
 | The neutral potential is the sum of local part of pseudopotential  |
 | and potential given by atomic charge, they will cancel out beyond  |
 | a certain radius cutoff, because the Z/r character.                |
 |                                                                    |
 <<<<<<<<<<<<<<<<<<<<<<<<<<<<<<<<<<<<<<<<<<<<<<<<<<<<<<<<<<<<<<<<<<<<<<





 SETUP ONE DIMENSIONAL ORBITALS/POTENTIAL
                        delta k  (1/Bohr) = 0.01
                        delta r    (Bohr) = 0.01
                        dr_uniform (Bohr) = 0.001
                        rmax       (Bohr) = 30
                                    kmesh = 779
      ORBITAL  L  N      nr      dr    RCUT  CHECK_UNIT    NEW_UNIT
            1  0  0     601    0.01       6           1           1
            2  0  1     601    0.01       6           1           1
            3  1  0     601    0.01       6           1           1
            4  1  1     601    0.01       6           1           1
            5  2  0     601    0.01       6           1           1
      ORBITAL  L  N      nr      dr    RCUT  CHECK_UNIT    NEW_UNIT
            1  0  0     601    0.01       6           1           1
            2  0  1     601    0.01       6           1           1
            3  1  0     601    0.01       6           1           1
            4  1  1     601    0.01       6           1           1
            5  2  0     601    0.01       6           1           1
 SET NONLOCAL PSEUDOPOTENTIAL PROJECTORS
 SET NONLOCAL PSEUDOPOTENTIAL PROJECTORS
 max number of nonlocal projetors among all species is 4

 SETUP THE TWO-CENTER INTEGRATION TABLES

 SETUP THE DIVISION OF H/S MATRIX
 divide the H&S matrix using 2D block algorithms.
                                     nb2d = 32
                  trace_loc_row dimension = 663
                  trace_loc_col dimension = 663
                                     nloc = 33489




 >>>>>>>>>>>>>>>>>>>>>>>>>>>>>>>>>>>>>>>>>>>>>>>>>>>>>>>>>>>>>>>>>>>>>>
 |                                                                    |
 | Search adjacent atoms:                                             |
 | Set the adjacent atoms for each atom and set the periodic boundary |
 | condition for the atoms on real space FFT grid. For k-dependent    |
 | algorithm, we also need to set the sparse H and S matrix element   |
 | for each atom.                                                     |
 |                                                                    |
 <<<<<<<<<<<<<<<<<<<<<<<<<<<<<<<<<<<<<<<<<<<<<<<<<<<<<<<<<<<<<<<<<<<<<<





 SETUP SEARCHING RADIUS FOR PROGRAM TO SEARCH ADJACENT ATOMS
                  longest orb rcut (Bohr) = 6
   longest nonlocal projector rcut (Bohr) = 1.5
              searching radius is (Bohr)) = 15
         searching radius unit is (Bohr)) = 1.89

 SETUP EXTENDED REAL SPACE GRID FOR GRID INTEGRATION
                        [real space grid] = 120, 120, 150
               [big cell numbers in grid] = 60, 60, 75
           [meshcell numbers in big cell] = 2, 2, 2
                      [extended fft grid] = 18, 18, 16
              [dimension of extened grid] = 97, 97, 108
                            UnitCellTotal = 27
 No atoms on this sub-FFT-mesh.
              Atom number in sub-FFT-grid = 0
    Local orbitals number in sub-FFT-grid = 0
                                ParaV.nnr = 41579
                                     nnrg = 0
Successful completion of Potential's registration : local
Successful completion of Potential's registration : hartree
Successful completion of Potential's registration : xc
Successful completion of Potential's registration : tddft
 Memory of pvpR : 0 MB
                                nnrg_last = 0
                                 nnrg_now = 0
                                 init_chg = atomic
 DONE : INIT SCF Time : 9.56097 (SEC)


 LCAO ALGORITHM --------------- ION=   1  ELEC=   1--------------------------------

 Density error is 0.178744573858

       Energy                       Rydberg                            eV
   E_KohnSham                -596.996123961                -8122.54896978
     E_Harris                -600.519504891                -8170.48702665
      E_Fermi               -0.384077251678                -5.22563909501

 LCAO ALGORITHM --------------- ION=   1  ELEC=   2--------------------------------
 Memory of pvpR : 0 MB

 Density error is 0.0438795790187

       Energy                       Rydberg                            eV
   E_KohnSham                -595.723216121                -8105.23017013
     E_Harris                 -598.66197716                -8145.21406533
      E_Fermi              -0.0258867447764               -0.352207231631

 LCAO ALGORITHM --------------- ION=   1  ELEC=   3--------------------------------
 Memory of pvpR : 0 MB

 Density error is 0.0741144279922

       Energy                       Rydberg                            eV
   E_KohnSham                -595.039846133                -8095.93244445
     E_Harris                -600.707302586                -8173.04214538
      E_Fermi                -0.14742792228                -2.00585978732

 LCAO ALGORITHM --------------- ION=   1  ELEC=   4--------------------------------
 Memory of pvpR : 0 MB

 Density error is 0.04094864966

       Energy                       Rydberg                            eV
   E_KohnSham                -597.307333754                -8126.78319624
     E_Harris                -598.410957471                -8141.79876724
      E_Fermi              -0.0488457069794               -0.664579937759

 LCAO ALGORITHM --------------- ION=   1  ELEC=   5--------------------------------
 Memory of pvpR : 0 MB

 Density error is 0.021992809137

       Energy                       Rydberg                            eV
   E_KohnSham                -597.919258234                -8135.10885591
     E_Harris                -598.127980454                -8137.94866741
      E_Fermi               -0.142452212279                 -1.9381617797

 LCAO ALGORITHM --------------- ION=   1  ELEC=   6--------------------------------
 Memory of pvpR : 0 MB

 Density error is 0.00818063188465

       Energy                       Rydberg                            eV
   E_KohnSham                 -597.98154369                -8135.95629303
     E_Harris                -597.997546657                -8136.17402456
      E_Fermi               -0.118531918156                -1.61270948179

 LCAO ALGORITHM --------------- ION=   1  ELEC=   7--------------------------------
 Memory of pvpR : 0 MB

 Density error is 0.00592111977919

       Energy                       Rydberg                            eV
   E_KohnSham                -597.980913391                -8135.94771736
     E_Harris                -597.994022459                -8136.12607538
      E_Fermi               -0.108814492125                -1.48049711787

 LCAO ALGORITHM --------------- ION=   1  ELEC=   8--------------------------------
 Memory of pvpR : 0 MB

 Density error is 0.00543961995922

       Energy                       Rydberg                            eV
   E_KohnSham                -597.979688041                -8135.93104562
     E_Harris                -597.995175864                -8136.14176826
      E_Fermi               -0.106178229076                -1.44462891899

 LCAO ALGORITHM --------------- ION=   1  ELEC=   9--------------------------------
 Memory of pvpR : 0 MB

 Density error is 0.00242205740514

       Energy                       Rydberg                            eV
   E_KohnSham                -597.987022477                -8136.03083574
     E_Harris                 -597.98977522                -8136.06828873
      E_Fermi               -0.112257917464                -1.52734732313

 LCAO ALGORITHM --------------- ION=   1  ELEC=  10--------------------------------
 Memory of pvpR : 0 MB

 Density error is 0.000705096799702

       Energy                       Rydberg                            eV
   E_KohnSham                -597.988182627                -8136.04662039
     E_Harris                 -597.98836587                -8136.04911354
      E_Fermi               -0.112211342705                -1.52671364102

 LCAO ALGORITHM --------------- ION=   1  ELEC=  11--------------------------------
 Memory of pvpR : 0 MB

 Density error is 0.000434324544907

       Energy                       Rydberg                            eV
   E_KohnSham                -597.988206877                -8136.04695033
     E_Harris                -597.988322894                -8136.04852882
      E_Fermi               -0.111955987563                -1.52323935607

 LCAO ALGORITHM --------------- ION=   1  ELEC=  12--------------------------------
 Memory of pvpR : 0 MB

 Density error is 0.00033046802857

       Energy                       Rydberg                            eV
   E_KohnSham                -597.988263923                -8136.04772647
     E_Harris                -597.988303331                -8136.04826265
      E_Fermi               -0.111657863978                -1.51918317661

 LCAO ALGORITHM --------------- ION=   1  ELEC=  13--------------------------------
 Memory of pvpR : 0 MB

 Density error is 9.34908533303e-05

       Energy                       Rydberg                            eV
   E_KohnSham                -597.988278675                 -8136.0479272
     E_Harris                -597.988281756                -8136.04796911
      E_Fermi               -0.111642250096                -1.51897073885

 LCAO ALGORITHM --------------- ION=   1  ELEC=  14--------------------------------
 Memory of pvpR : 0 MB

 Density error is 4.26580388186e-05

       Energy                       Rydberg                            eV
   E_KohnSham                -597.988279391                -8136.04793693
     E_Harris                -597.988280435                -8136.04795113
      E_Fermi               -0.111768518339                -1.52068870643

 LCAO ALGORITHM --------------- ION=   1  ELEC=  15--------------------------------
 Memory of pvpR : 0 MB

 Density error is 7.46259316729e-05

       Energy                       Rydberg                            eV
   E_KohnSham                -597.988278618                -8136.04792642
     E_Harris                -597.988281573                -8136.04796662
      E_Fermi                -0.11193313146                -1.52292838283

 LCAO ALGORITHM --------------- ION=   1  ELEC=  16--------------------------------
 Memory of pvpR : 0 MB

 Density error is 1.62033591853e-05

       Energy                       Rydberg                            eV
   E_KohnSham                 -597.98828004                -8136.04794577
     E_Harris                -597.988280188                -8136.04794777
      E_Fermi                -0.11176980978                -1.52070627739

 LCAO ALGORITHM --------------- ION=   1  ELEC=  17--------------------------------
 Memory of pvpR : 0 MB

 Density error is 4.55891419013e-06

       Energy                       Rydberg                            eV
   E_KohnSham                  -597.9882801                -8136.04794659
     E_Harris                -597.988280126                -8136.04794694
       E_band                -167.304534455                -2276.29496983
   E_one_elec                -4372.11862337                -59485.7256097
    E_Hartree                +2222.19131918                +30234.4639869
         E_xc                -184.036395813                -2503.94362244
      E_Ewald                +1735.98113143                +23619.2350079
      E_demet             -0.00571152237299              -0.0777092485271
      E_descf                            +0                            +0
        E_exx                            +0                            +0
      E_Fermi               -0.111793801395                -1.52103270005

 charge density convergence is achieved
 final etot is -8136.04794659 eV

 STATE ENERGY(eV) AND OCCUPATIONS    NSPIN == 1
 1/10 kpoint (Cartesian) = 0 0 0 (0 pws)
       1       -35.1455       0.125000
       2       -21.3070       0.125000
       3       -21.2992       0.125000
       4       -20.9692       0.125000
       5       -20.1047       0.125000
       6       -20.1034       0.125000
       7       -20.0756       0.125000
       8       -19.7549       0.125000
       9       -19.7548       0.125000
      10       -19.6971       0.125000
      11       -18.2963       0.125000
      12       -18.2943       0.125000
      13       -18.2919       0.125000
      14       -17.9645       0.125000
      15       -17.9604       0.125000
      16       -17.9383       0.125000
      17       -17.4199       0.125000
      18       -17.4137       0.125000
      19       -17.3783       0.125000
      20       -16.8624       0.125000
      21       -16.8565       0.125000
      22       -16.7325       0.125000
      23       -15.2626       0.125000
      24       -15.2115       0.125000
      25       -15.2055       0.125000
      26       -15.0601       0.125000
      27       -15.0593       0.125000
      28       -14.7871       0.125000
      29       -14.3065       0.125000
      30       -14.2998       0.125000
      31       -14.2970       0.125000
      32       -13.8713       0.125000
      33       -13.7553       0.125000
      34       -13.7551       0.125000
      35       -12.9962       0.125000
      36       -12.9750       0.125000
      37       -12.9683       0.125000
      38       -12.9085       0.125000
      39       -12.3775       0.125000
      40       -12.3393       0.125000
      41       -12.3330       0.125000
      42       -10.6390       0.125000
      43       -10.5914       0.125000
      44       -10.5898       0.125000
      45       -10.5258       0.125000
      46       -10.5258       0.125000
      47       -10.4675       0.125000
      48       -10.4636       0.125000
      49       -10.4537       0.125000
      50       -10.4523       0.125000
      51       -10.3038       0.125000
      52       -9.77415       0.125000
      53       -9.77095       0.125000
      54       -9.15222       0.125000
      55       -9.14904       0.125000
      56       -9.10929       0.125000
      57       -9.09980       0.125000
      58       -9.03096       0.125000
      59       -8.58733       0.125000
      60       -8.58185       0.125000
      61       -8.12754       0.125000
      62       -8.12639       0.125000
      63       -8.05680       0.125000
      64       -8.05497       0.125000
      65       -8.02826       0.125000
      66       -7.92119       0.125000
      67       -7.84509       0.125000
      68       -7.83459       0.125000
      69       -7.82619       0.125000
      70       -7.78468       0.125000
      71       -7.77190       0.125000
      72       -7.76511       0.125000
      73       -7.76377       0.125000
      74       -7.75994       0.125000
      75       -7.73236       0.125000
      76       -7.27323       0.125000
      77       -6.65091       0.125000
      78       -6.64131       0.125000
      79       -6.17373       0.125000
      80       -6.16272       0.125000
      81       -6.16042       0.125000
      82       -6.13977       0.125000
      83       -6.11096       0.125000
      84       -6.10818       0.125000
      85       -5.92852       0.125000
      86       -5.91903       0.125000
      87       -5.91459       0.125000
      88       -5.48016       0.125000
      89       -5.22765       0.125000
      90       -5.22098       0.125000
      91       -5.01299       0.125000
      92       -5.00498       0.125000
      93       -4.98619       0.125000
      94       -4.81291       0.125000
      95       -4.80643       0.125000
      96       -3.93050       0.125000
      97       -3.37191       0.125000
      98       -3.36780       0.125000
      99       -3.00314       0.125000
     100       -2.96887       0.125000
     101       -2.96184       0.125000
     102       -1.65679       0.115112
     103       -1.65539       0.114841
     104       -1.57857      0.0906361
     105     -0.0942645        0.00000
     106     -0.0702327        0.00000
     107     -0.0653080        0.00000
     108       0.408853        0.00000
     109       0.412584        0.00000
     110       0.870498        0.00000
     111        1.92166        0.00000
     112        1.92371        0.00000
     113        1.94341        0.00000
     114        2.22242        0.00000
     115        2.22325        0.00000
     116        2.83076        0.00000
     117        3.65841        0.00000
     118        3.67273        0.00000
     119        3.67528        0.00000
     120        3.70178        0.00000
     121        3.70191        0.00000
     122        5.10972        0.00000
     123        6.01399        0.00000

 2/10 kpoint (Cartesian) = 0.0608813 -0.0352004 0.00000 (0 pws)
       1       -35.1455       0.250000
       2       -21.3221       0.250000
       3       -21.3017       0.250000
       4       -20.8848       0.250000
       5       -20.3964       0.250000
       6       -20.1237       0.250000
       7       -20.0812       0.250000
       8       -19.6900       0.250000
       9       -19.6386       0.250000
      10       -19.2462       0.250000
      11       -18.8377       0.250000
      12       -18.6493       0.250000
      13       -18.1657       0.250000
      14       -18.0566       0.250000
      15       -18.0072       0.250000
      16       -17.6460       0.250000
      17       -17.4285       0.250000
      18       -17.3676       0.250000
      19       -17.2666       0.250000
      20       -16.6898       0.250000
      21       -16.6894       0.250000
      22       -16.0973       0.250000
      23       -15.8313       0.250000
      24       -15.7269       0.250000
      25       -15.6507       0.250000
      26       -15.2854       0.250000
      27       -14.9538       0.250000
      28       -14.8261       0.250000
      29       -14.2013       0.250000
      30       -14.0982       0.250000
      31       -13.9384       0.250000
      32       -13.7172       0.250000
      33       -13.6664       0.250000
      34       -13.5933       0.250000
      35       -13.2893       0.250000
      36       -13.0544       0.250000
      37       -13.0475       0.250000
      38       -12.7287       0.250000
      39       -12.0893       0.250000
      40       -12.0848       0.250000
      41       -11.5261       0.250000
      42       -11.4870       0.250000
      43       -11.3848       0.250000
      44       -11.2566       0.250000
      45       -10.9740       0.250000
      46       -10.8150       0.250000
      47       -10.5970       0.250000
      48       -10.3545       0.250000
      49       -10.1459       0.250000
      50       -9.79406       0.250000
      51       -9.77310       0.250000
      52       -9.68624       0.250000
      53       -9.64585       0.250000
      54       -9.30831       0.250000
      55       -9.13604       0.250000
      56       -9.00792       0.250000
      57       -8.94858       0.250000
      58       -8.76214       0.250000
      59       -8.57914       0.250000
      60       -8.49271       0.250000
      61       -8.36495       0.250000
      62       -8.35344       0.250000
      63       -8.30294       0.250000
      64       -8.19095       0.250000
      65       -8.16988       0.250000
      66       -8.08701       0.250000
      67       -8.08696       0.250000
      68       -7.92085       0.250000
      69       -7.90071       0.250000
      70       -7.76608       0.250000
      71       -7.66410       0.250000
      72       -7.54761       0.250000
      73       -7.36025       0.250000
      74       -7.32059       0.250000
      75       -7.29041       0.250000
      76       -6.93824       0.250000
      77       -6.85624       0.250000
      78       -6.67782       0.250000
      79       -6.61381       0.250000
      80       -6.60156       0.250000
      81       -6.43064       0.250000
      82       -6.18294       0.250000
      83       -6.14622       0.250000
      84       -6.01757       0.250000
      85       -5.94778       0.250000
      86       -5.76195       0.250000
      87       -5.65120       0.250000
      88       -5.49837       0.250000
      89       -5.40626       0.250000
      90       -5.13597       0.250000
      91       -5.04721       0.250000
      92       -4.94114       0.250000
      93       -4.78420       0.250000
      94       -4.63022       0.250000
      95       -4.40108       0.250000
      96       -4.07030       0.250000
      97       -3.65910       0.250000
      98       -3.50062       0.250000
      99       -3.39600       0.250000
     100       -2.99293       0.250000
     101       -2.83650       0.250000
     102       -1.76961       0.248778
     103       -1.62018       0.212159
     104       -1.45089      0.0582478
     105      -0.179951        0.00000
     106     -0.0377207        0.00000
     107       0.380216        0.00000
     108       0.503301        0.00000
     109       0.584372        0.00000
     110       0.844406        0.00000
     111        1.30249        0.00000
     112        1.53428        0.00000
     113        1.84055        0.00000
     114        2.52163        0.00000
     115        2.62946        0.00000
     116        2.67622        0.00000
     117        3.07104        0.00000
     118        3.43135        0.00000
     119        3.54450        0.00000
     120        4.28127        0.00000
     121        4.76416        0.00000
     122        5.22992        0.00000
     123        5.95919        0.00000

 3/10 kpoint (Cartesian) = 0.0405875 -0.0234669 0.00000 (0 pws)
       1       -35.1455       0.125000
       2       -21.3343       0.125000
       3       -21.3043       0.125000
       4       -20.6998       0.125000
       5       -20.6455       0.125000
       6       -20.1989       0.125000
       7       -20.1379       0.125000
       8       -19.4249       0.125000
       9       -19.2238       0.125000
      10       -19.1972       0.125000
      11       -19.1923       0.125000
      12       -18.7705       0.125000
      13       -18.5672       0.125000
      14       -18.0566       0.125000
      15       -17.9904       0.125000
      16       -17.7438       0.125000
      17       -17.5736       0.125000
      18       -16.7557       0.125000
      19       -16.6685       0.125000
      20       -16.5838       0.125000
      21       -16.4881       0.125000
      22       -16.3706       0.125000
      23       -16.0669       0.125000
      24       -16.0348       0.125000
      25       -15.8625       0.125000
      26       -15.4876       0.125000
      27       -14.9515       0.125000
      28       -14.9190       0.125000
      29       -14.4793       0.125000
      30       -13.9698       0.125000
      31       -13.8558       0.125000
      32       -13.8158       0.125000
      33       -13.6492       0.125000
      34       -13.2031       0.125000
      35       -13.0607       0.125000
      36       -12.8219       0.125000
      37       -12.5575       0.125000
      38       -12.4885       0.125000
      39       -12.3015       0.125000
      40       -12.1644       0.125000
      41       -11.8108       0.125000
      42       -11.6421       0.125000
      43       -11.6078       0.125000
      44       -11.3864       0.125000
      45       -11.1797       0.125000
      46       -11.1091       0.125000
      47       -10.3947       0.125000
      48       -10.2031       0.125000
      49       -10.1590       0.125000
      50       -10.1427       0.125000
      51       -9.93374       0.125000
      52       -9.66448       0.125000
      53       -9.15044       0.125000
      54       -9.08398       0.125000
      55       -9.02032       0.125000
      56       -8.95665       0.125000
      57       -8.89518       0.125000
      58       -8.73273       0.125000
      59       -8.69816       0.125000
      60       -8.66720       0.125000
      61       -8.48700       0.125000
      62       -8.43723       0.125000
      63       -8.36412       0.125000
      64       -8.27119       0.125000
      65       -8.23907       0.125000
      66       -8.19322       0.125000
      67       -8.06919       0.125000
      68       -7.73147       0.125000
      69       -7.66813       0.125000
      70       -7.38393       0.125000
      71       -7.33232       0.125000
      72       -7.32822       0.125000
      73       -7.31453       0.125000
      74       -7.24244       0.125000
      75       -7.23739       0.125000
      76       -7.15111       0.125000
      77       -7.00610       0.125000
      78       -6.98521       0.125000
      79       -6.89742       0.125000
      80       -6.79963       0.125000
      81       -6.46071       0.125000
      82       -6.34383       0.125000
      83       -6.15197       0.125000
      84       -5.97981       0.125000
      85       -5.74897       0.125000
      86       -5.68225       0.125000
      87       -5.67721       0.125000
      88       -5.57067       0.125000
      89       -5.45174       0.125000
      90       -5.18635       0.125000
      91       -5.12804       0.125000
      92       -4.61208       0.125000
      93       -4.41553       0.125000
      94       -4.20827       0.125000
      95       -4.12613       0.125000
      96       -4.12544       0.125000
      97       -4.02748       0.125000
      98       -4.00674       0.125000
      99       -3.89228       0.125000
     100       -2.91620       0.125000
     101       -2.77160       0.125000
     102       -1.85455       0.124967
     103       -1.57424      0.0887345
     104       -1.39848      0.0126697
     105      -0.251728        0.00000
     106     -0.0361219        0.00000
     107       0.573031        0.00000
     108       0.765362        0.00000
     109       0.827412        0.00000
     110        1.14816        0.00000
     111        1.18603        0.00000
     112        1.39459        0.00000
     113        1.50119        0.00000
     114        1.65451        0.00000
     115        2.44179        0.00000
     116        3.09254        0.00000
     117        3.15381        0.00000
     118        3.24921        0.00000
     119        4.05648        0.00000
     120        4.66659        0.00000
     121        5.09669        0.00000
     122        5.65127        0.00000
     123        5.69735        0.00000

 4/10 kpoint (Cartesian) = 0.00000 0.0702493 0.00000 (0 pws)
       1       -35.1455       0.250000
       2       -21.3176       0.250000
       3       -21.3064       0.250000
       4       -20.8846       0.250000
       5       -20.3969       0.250000
       6       -20.1230       0.250000
       7       -20.0799       0.250000
       8       -19.6908       0.250000
       9       -19.6387       0.250000
      10       -19.2477       0.250000
      11       -18.8391       0.250000
      12       -18.6511       0.250000
      13       -18.1637       0.250000
      14       -18.0510       0.250000
      15       -18.0071       0.250000
      16       -17.6468       0.250000
      17       -17.4268       0.250000
      18       -17.3670       0.250000
      19       -17.2692       0.250000
      20       -16.6947       0.250000
      21       -16.6840       0.250000
      22       -16.1044       0.250000
      23       -15.8417       0.250000
      24       -15.7313       0.250000
      25       -15.6453       0.250000
      26       -15.2822       0.250000
      27       -14.9410       0.250000
      28       -14.8198       0.250000
      29       -14.1984       0.250000
      30       -14.0971       0.250000
      31       -13.9432       0.250000
      32       -13.7202       0.250000
      33       -13.6719       0.250000
      34       -13.5954       0.250000
      35       -13.2871       0.250000
      36       -13.0565       0.250000
      37       -13.0444       0.250000
      38       -12.7286       0.250000
      39       -12.0920       0.250000
      40       -12.0796       0.250000
      41       -11.5343       0.250000
      42       -11.4890       0.250000
      43       -11.3874       0.250000
      44       -11.2599       0.250000
      45       -10.9778       0.250000
      46       -10.8160       0.250000
      47       -10.5972       0.250000
      48       -10.3439       0.250000
      49       -10.1350       0.250000
      50       -9.78552       0.250000
      51       -9.76647       0.250000
      52       -9.68258       0.250000
      53       -9.65121       0.250000
      54       -9.31564       0.250000
      55       -9.13459       0.250000
      56       -9.00835       0.250000
      57       -8.95739       0.250000
      58       -8.75982       0.250000
      59       -8.57907       0.250000
      60       -8.49339       0.250000
      61       -8.36245       0.250000
      62       -8.34918       0.250000
      63       -8.30268       0.250000
      64       -8.20344       0.250000
      65       -8.17695       0.250000
      66       -8.08585       0.250000
      67       -8.07745       0.250000
      68       -7.93394       0.250000
      69       -7.90359       0.250000
      70       -7.76484       0.250000
      71       -7.64974       0.250000
      72       -7.54906       0.250000
      73       -7.35319       0.250000
      74       -7.32178       0.250000
      75       -7.29129       0.250000
      76       -6.94530       0.250000
      77       -6.84613       0.250000
      78       -6.67855       0.250000
      79       -6.62520       0.250000
      80       -6.60644       0.250000
      81       -6.43148       0.250000
      82       -6.18772       0.250000
      83       -6.14371       0.250000
      84       -6.01417       0.250000
      85       -5.95263       0.250000
      86       -5.75227       0.250000
      87       -5.64717       0.250000
      88       -5.49187       0.250000
      89       -5.40481       0.250000
      90       -5.14126       0.250000
      91       -5.05232       0.250000
      92       -4.93576       0.250000
      93       -4.78375       0.250000
      94       -4.62497       0.250000
      95       -4.40899       0.250000
      96       -4.07418       0.250000
      97       -3.65681       0.250000
      98       -3.50528       0.250000
      99       -3.40588       0.250000
     100       -2.98615       0.250000
     101       -2.82586       0.250000
     102       -1.76729       0.248690
     103       -1.61827       0.210984
     104       -1.45406      0.0607916
     105      -0.187117        0.00000
     106     -0.0432732        0.00000
     107       0.385204        0.00000
     108       0.505959        0.00000
     109       0.584171        0.00000
     110       0.845398        0.00000
     111        1.30369        0.00000
     112        1.53584        0.00000
     113        1.84179        0.00000
     114        2.52309        0.00000
     115        2.63067        0.00000
     116        2.67585        0.00000
     117        3.06983        0.00000
     118        3.42729        0.00000
     119        3.54027        0.00000
     120        4.28283        0.00000
     121        4.76616        0.00000
     122        5.23353        0.00000
     123        5.97543        0.00000

 5/10 kpoint (Cartesian) = 0.0608813 0.0350489 0.00000 (0 pws)
       1       -35.1455       0.250000
       2       -21.3176       0.250000
       3       -21.3064       0.250000
       4       -20.8846       0.250000
       5       -20.3969       0.250000
       6       -20.1230       0.250000
       7       -20.0799       0.250000
       8       -19.6908       0.250000
       9       -19.6387       0.250000
      10       -19.2477       0.250000
      11       -18.8391       0.250000
      12       -18.6511       0.250000
      13       -18.1637       0.250000
      14       -18.0510       0.250000
      15       -18.0071       0.250000
      16       -17.6468       0.250000
      17       -17.4268       0.250000
      18       -17.3670       0.250000
      19       -17.2692       0.250000
      20       -16.6947       0.250000
      21       -16.6840       0.250000
      22       -16.1044       0.250000
      23       -15.8417       0.250000
      24       -15.7313       0.250000
      25       -15.6453       0.250000
      26       -15.2822       0.250000
      27       -14.9410       0.250000
      28       -14.8198       0.250000
      29       -14.1984       0.250000
      30       -14.0971       0.250000
      31       -13.9432       0.250000
      32       -13.7202       0.250000
      33       -13.6719       0.250000
      34       -13.5954       0.250000
      35       -13.2871       0.250000
      36       -13.0565       0.250000
      37       -13.0444       0.250000
      38       -12.7286       0.250000
      39       -12.0920       0.250000
      40       -12.0796       0.250000
      41       -11.5343       0.250000
      42       -11.4890       0.250000
      43       -11.3874       0.250000
      44       -11.2599       0.250000
      45       -10.9778       0.250000
      46       -10.8160       0.250000
      47       -10.5972       0.250000
      48       -10.3439       0.250000
      49       -10.1350       0.250000
      50       -9.78552       0.250000
      51       -9.76647       0.250000
      52       -9.68258       0.250000
      53       -9.65121       0.250000
      54       -9.31564       0.250000
      55       -9.13459       0.250000
      56       -9.00835       0.250000
      57       -8.95739       0.250000
      58       -8.75982       0.250000
      59       -8.57907       0.250000
      60       -8.49339       0.250000
      61       -8.36245       0.250000
      62       -8.34918       0.250000
      63       -8.30268       0.250000
      64       -8.20344       0.250000
      65       -8.17695       0.250000
      66       -8.08585       0.250000
      67       -8.07745       0.250000
      68       -7.93394       0.250000
      69       -7.90360       0.250000
      70       -7.76484       0.250000
      71       -7.64974       0.250000
      72       -7.54906       0.250000
      73       -7.35319       0.250000
      74       -7.32178       0.250000
      75       -7.29129       0.250000
      76       -6.94530       0.250000
      77       -6.84612       0.250000
      78       -6.67855       0.250000
      79       -6.62520       0.250000
      80       -6.60644       0.250000
      81       -6.43148       0.250000
      82       -6.18772       0.250000
      83       -6.14371       0.250000
      84       -6.01417       0.250000
      85       -5.95263       0.250000
      86       -5.75227       0.250000
      87       -5.64717       0.250000
      88       -5.49187       0.250000
      89       -5.40481       0.250000
      90       -5.14126       0.250000
      91       -5.05232       0.250000
      92       -4.93576       0.250000
      93       -4.78375       0.250000
      94       -4.62497       0.250000
      95       -4.40899       0.250000
      96       -4.07418       0.250000
      97       -3.65681       0.250000
      98       -3.50528       0.250000
      99       -3.40588       0.250000
     100       -2.98615       0.250000
     101       -2.82586       0.250000
     102       -1.76729       0.248690
     103       -1.61827       0.210984
     104       -1.45406      0.0607917
     105      -0.187117        0.00000
     106     -0.0432734        0.00000
     107       0.385205        0.00000
     108       0.505959        0.00000
     109       0.584171        0.00000
     110       0.845398        0.00000
     111        1.30369        0.00000
     112        1.53584        0.00000
     113        1.84179        0.00000
     114        2.52309        0.00000
     115        2.63067        0.00000
     116        2.67585        0.00000
     117        3.06983        0.00000
     118        3.42729        0.00000
     119        3.54027        0.00000
     120        4.28283        0.00000
     121        4.76616        0.00000
     122        5.23353        0.00000
     123        5.97543        0.00000

 6/10 kpoint (Cartesian) = 0.0405875 0.0467823 0.00000 (0 pws)
       1       -35.1455       0.250000
       2       -21.3280       0.250000
       3       -21.3112       0.250000
       4       -20.7375       0.250000
       5       -20.5225       0.250000
       6       -20.4329       0.250000
       7       -19.7965       0.250000
       8       -19.7308       0.250000
       9       -19.3216       0.250000
      10       -19.2093       0.250000
      11       -18.8677       0.250000
      12       -18.6572       0.250000
      13       -18.6422       0.250000
      14       -18.3596       0.250000
      15       -18.1025       0.250000
      16       -17.3735       0.250000
      17       -17.3208       0.250000
      18       -17.0981       0.250000
      19       -16.8893       0.250000
      20       -16.5648       0.250000
      21       -16.5218       0.250000
      22       -16.3318       0.250000
      23       -16.0273       0.250000
      24       -15.8357       0.250000
      25       -15.6788       0.250000
      26       -15.5453       0.250000
      27       -15.3236       0.250000
      28       -14.5774       0.250000
      29       -14.4804       0.250000
      30       -14.2346       0.250000
      31       -14.1276       0.250000
      32       -13.6829       0.250000
      33       -13.2067       0.250000
      34       -13.1289       0.250000
      35       -12.9502       0.250000
      36       -12.8722       0.250000
      37       -12.8379       0.250000
      38       -12.4982       0.250000
      39       -12.3081       0.250000
      40       -12.1274       0.250000
      41       -12.0357       0.250000
      42       -11.8926       0.250000
      43       -11.5394       0.250000
      44       -11.0888       0.250000
      45       -10.9972       0.250000
      46       -10.8756       0.250000
      47       -10.6556       0.250000
      48       -10.4065       0.250000
      49       -10.3063       0.250000
      50       -10.0235       0.250000
      51       -9.69956       0.250000
      52       -9.54342       0.250000
      53       -9.35128       0.250000
      54       -9.27498       0.250000
      55       -9.16801       0.250000
      56       -8.90525       0.250000
      57       -8.81860       0.250000
      58       -8.74982       0.250000
      59       -8.67380       0.250000
      60       -8.66025       0.250000
      61       -8.50806       0.250000
      62       -8.45328       0.250000
      63       -8.34126       0.250000
      64       -8.11085       0.250000
      65       -8.08067       0.250000
      66       -7.92797       0.250000
      67       -7.89823       0.250000
      68       -7.83595       0.250000
      69       -7.75729       0.250000
      70       -7.67319       0.250000
      71       -7.59914       0.250000
      72       -7.50599       0.250000
      73       -7.35011       0.250000
      74       -7.24412       0.250000
      75       -7.21573       0.250000
      76       -7.04244       0.250000
      77       -6.96963       0.250000
      78       -6.88759       0.250000
      79       -6.75078       0.250000
      80       -6.63750       0.250000
      81       -6.39756       0.250000
      82       -6.32497       0.250000
      83       -6.29179       0.250000
      84       -6.26362       0.250000
      85       -5.83422       0.250000
      86       -5.75473       0.250000
      87       -5.62992       0.250000
      88       -5.40548       0.250000
      89       -5.23366       0.250000
      90       -5.09640       0.250000
      91       -4.94886       0.250000
      92       -4.85348       0.250000
      93       -4.64163       0.250000
      94       -4.48406       0.250000
      95       -4.13065       0.250000
      96       -4.02122       0.250000
      97       -3.95755       0.250000
      98       -3.89391       0.250000
      99       -3.49493       0.250000
     100       -3.47018       0.250000
     101       -2.42717       0.250000
     102       -1.96734       0.250000
     103       -1.65757       0.230521
     104       -1.18871    6.89881e-05
     105      -0.626142        0.00000
     106       0.427216        0.00000
     107       0.507448        0.00000
     108       0.640426        0.00000
     109       0.840766        0.00000
     110       0.880832        0.00000
     111        1.19625        0.00000
     112        1.54914        0.00000
     113        1.71275        0.00000
     114        1.95704        0.00000
     115        2.16282        0.00000
     116        2.38464        0.00000
     117        3.22316        0.00000
     118        3.96538        0.00000
     119        4.21409        0.00000
     120        4.45853        0.00000
     121        4.86293        0.00000
     122        5.36687        0.00000
     123        5.58278        0.00000

 7/10 kpoint (Cartesian) = 0.0202938 0.0585158 0.00000 (0 pws)
       1       -35.1455       0.250000
       2       -21.3280       0.250000
       3       -21.3112       0.250000
       4       -20.7375       0.250000
       5       -20.5225       0.250000
       6       -20.4329       0.250000
       7       -19.7965       0.250000
       8       -19.7308       0.250000
       9       -19.3216       0.250000
      10       -19.2093       0.250000
      11       -18.8677       0.250000
      12       -18.6572       0.250000
      13       -18.6422       0.250000
      14       -18.3596       0.250000
      15       -18.1025       0.250000
      16       -17.3735       0.250000
      17       -17.3208       0.250000
      18       -17.0981       0.250000
      19       -16.8893       0.250000
      20       -16.5648       0.250000
      21       -16.5218       0.250000
      22       -16.3318       0.250000
      23       -16.0273       0.250000
      24       -15.8357       0.250000
      25       -15.6788       0.250000
      26       -15.5453       0.250000
      27       -15.3236       0.250000
      28       -14.5774       0.250000
      29       -14.4804       0.250000
      30       -14.2346       0.250000
      31       -14.1276       0.250000
      32       -13.6829       0.250000
      33       -13.2067       0.250000
      34       -13.1289       0.250000
      35       -12.9502       0.250000
      36       -12.8722       0.250000
      37       -12.8379       0.250000
      38       -12.4982       0.250000
      39       -12.3081       0.250000
      40       -12.1274       0.250000
      41       -12.0357       0.250000
      42       -11.8926       0.250000
      43       -11.5394       0.250000
      44       -11.0888       0.250000
      45       -10.9972       0.250000
      46       -10.8756       0.250000
      47       -10.6556       0.250000
      48       -10.4065       0.250000
      49       -10.3063       0.250000
      50       -10.0235       0.250000
      51       -9.69956       0.250000
      52       -9.54342       0.250000
      53       -9.35128       0.250000
      54       -9.27498       0.250000
      55       -9.16801       0.250000
      56       -8.90525       0.250000
      57       -8.81860       0.250000
      58       -8.74982       0.250000
      59       -8.67380       0.250000
      60       -8.66025       0.250000
      61       -8.50806       0.250000
      62       -8.45328       0.250000
      63       -8.34126       0.250000
      64       -8.11085       0.250000
      65       -8.08067       0.250000
      66       -7.92797       0.250000
      67       -7.89823       0.250000
      68       -7.83595       0.250000
      69       -7.75729       0.250000
      70       -7.67319       0.250000
      71       -7.59914       0.250000
      72       -7.50599       0.250000
      73       -7.35011       0.250000
      74       -7.24412       0.250000
      75       -7.21573       0.250000
      76       -7.04244       0.250000
      77       -6.96963       0.250000
      78       -6.88759       0.250000
      79       -6.75078       0.250000
      80       -6.63750       0.250000
      81       -6.39756       0.250000
      82       -6.32497       0.250000
      83       -6.29179       0.250000
      84       -6.26362       0.250000
      85       -5.83422       0.250000
      86       -5.75473       0.250000
      87       -5.62992       0.250000
      88       -5.40548       0.250000
      89       -5.23366       0.250000
      90       -5.09640       0.250000
      91       -4.94886       0.250000
      92       -4.85348       0.250000
      93       -4.64163       0.250000
      94       -4.48406       0.250000
      95       -4.13065       0.250000
      96       -4.02122       0.250000
      97       -3.95755       0.250000
      98       -3.89391       0.250000
      99       -3.49493       0.250000
     100       -3.47018       0.250000
     101       -2.42717       0.250000
     102       -1.96734       0.250000
     103       -1.65757       0.230521
     104       -1.18871    6.89885e-05
     105      -0.626142        0.00000
     106       0.427216        0.00000
     107       0.507448        0.00000
     108       0.640426        0.00000
     109       0.840766        0.00000
     110       0.880832        0.00000
     111        1.19625        0.00000
     112        1.54914        0.00000
     113        1.71275        0.00000
     114        1.95704        0.00000
     115        2.16282        0.00000
     116        2.38464        0.00000
     117        3.22316        0.00000
     118        3.96538        0.00000
     119        4.21409        0.00000
     120        4.45853        0.00000
     121        4.86293        0.00000
     122        5.36687        0.00000
     123        5.58278        0.00000

 8/10 kpoint (Cartesian) = 0.00000 0.0468328 0.00000 (0 pws)
       1       -35.1455       0.125000
       2       -21.3294       0.125000
       3       -21.3095       0.125000
       4       -20.7004       0.125000
       5       -20.6450       0.125000
       6       -20.1971       0.125000
       7       -20.1373       0.125000
       8       -19.4256       0.125000
       9       -19.2251       0.125000
      10       -19.1985       0.125000
      11       -19.1925       0.125000
      12       -18.7735       0.125000
      13       -18.5700       0.125000
      14       -18.0505       0.125000
      15       -17.9849       0.125000
      16       -17.7398       0.125000
      17       -17.5698       0.125000
      18       -16.7630       0.125000
      19       -16.6748       0.125000
      20       -16.5879       0.125000
      21       -16.4918       0.125000
      22       -16.3679       0.125000
      23       -16.0741       0.125000
      24       -16.0288       0.125000
      25       -15.8643       0.125000
      26       -15.4948       0.125000
      27       -14.9420       0.125000
      28       -14.9048       0.125000
      29       -14.4775       0.125000
      30       -13.9632       0.125000
      31       -13.8507       0.125000
      32       -13.8128       0.125000
      33       -13.6541       0.125000
      34       -13.2134       0.125000
      35       -13.0647       0.125000
      36       -12.8233       0.125000
      37       -12.5618       0.125000
      38       -12.4927       0.125000
      39       -12.3049       0.125000
      40       -12.1657       0.125000
      41       -11.8103       0.125000
      42       -11.6418       0.125000
      43       -11.6079       0.125000
      44       -11.3872       0.125000
      45       -11.1779       0.125000
      46       -11.1119       0.125000
      47       -10.4032       0.125000
      48       -10.2016       0.125000
      49       -10.1462       0.125000
      50       -10.1311       0.125000
      51       -9.93949       0.125000
      52       -9.65458       0.125000
      53       -9.13974       0.125000
      54       -9.07410       0.125000
      55       -9.01382       0.125000
      56       -8.95729       0.125000
      57       -8.89568       0.125000
      58       -8.73939       0.125000
      59       -8.70988       0.125000
      60       -8.67254       0.125000
      61       -8.48914       0.125000
      62       -8.44386       0.125000
      63       -8.36338       0.125000
      64       -8.27741       0.125000
      65       -8.23972       0.125000
      66       -8.18387       0.125000
      67       -8.06811       0.125000
      68       -7.72587       0.125000
      69       -7.67537       0.125000
      70       -7.39660       0.125000
      71       -7.33892       0.125000
      72       -7.33369       0.125000
      73       -7.31685       0.125000
      74       -7.24312       0.125000
      75       -7.23498       0.125000
      76       -7.13238       0.125000
      77       -7.00393       0.125000
      78       -6.98729       0.125000
      79       -6.90061       0.125000
      80       -6.80525       0.125000
      81       -6.46335       0.125000
      82       -6.34529       0.125000
      83       -6.14885       0.125000
      84       -5.97520       0.125000
      85       -5.75277       0.125000
      86       -5.67464       0.125000
      87       -5.67107       0.125000
      88       -5.57842       0.125000
      89       -5.44438       0.125000
      90       -5.18493       0.125000
      91       -5.11965       0.125000
      92       -4.61466       0.125000
      93       -4.41908       0.125000
      94       -4.21773       0.125000
      95       -4.13436       0.125000
      96       -4.12156       0.125000
      97       -4.02788       0.125000
      98       -3.99930       0.125000
      99       -3.90753       0.125000
     100       -2.90858       0.125000
     101       -2.75969       0.125000
     102       -1.85409       0.124966
     103       -1.57144      0.0874807
     104       -1.39937      0.0128759
     105      -0.261060        0.00000
     106     -0.0433093        0.00000
     107       0.574934        0.00000
     108       0.766523        0.00000
     109       0.829146        0.00000
     110        1.15015        0.00000
     111        1.18907        0.00000
     112        1.39747        0.00000
     113        1.50217        0.00000
     114        1.65801        0.00000
     115        2.44087        0.00000
     116        3.09091        0.00000
     117        3.15173        0.00000
     118        3.24606        0.00000
     119        4.05722        0.00000
     120        4.66275        0.00000
     121        5.09350        0.00000
     122        5.66075        0.00000
     123        5.69837        0.00000

 9/10 kpoint (Cartesian) = 0.0608813 0.0116325 0.00000 (0 pws)
       1       -35.1455       0.250000
       2       -21.3218       0.250000
       3       -21.3176       0.250000
       4       -20.7374       0.250000
       5       -20.5227       0.250000
       6       -20.4325       0.250000
       7       -19.7950       0.250000
       8       -19.7297       0.250000
       9       -19.3246       0.250000
      10       -19.2122       0.250000
      11       -18.8687       0.250000
      12       -18.6547       0.250000
      13       -18.6406       0.250000
      14       -18.3588       0.250000
      15       -18.1034       0.250000
      16       -17.3704       0.250000
      17       -17.3183       0.250000
      18       -17.0954       0.250000
      19       -16.8839       0.250000
      20       -16.5735       0.250000
      21       -16.5298       0.250000
      22       -16.3376       0.250000
      23       -16.0337       0.250000
      24       -15.8291       0.250000
      25       -15.6771       0.250000
      26       -15.5459       0.250000
      27       -15.3154       0.250000
      28       -14.5741       0.250000
      29       -14.4806       0.250000
      30       -14.2326       0.250000
      31       -14.1224       0.250000
      32       -13.6922       0.250000
      33       -13.2025       0.250000
      34       -13.1292       0.250000
      35       -12.9556       0.250000
      36       -12.8678       0.250000
      37       -12.8419       0.250000
      38       -12.4945       0.250000
      39       -12.3105       0.250000
      40       -12.1238       0.250000
      41       -12.0428       0.250000
      42       -11.8986       0.250000
      43       -11.5394       0.250000
      44       -11.0902       0.250000
      45       -10.9961       0.250000
      46       -10.8752       0.250000
      47       -10.6598       0.250000
      48       -10.4059       0.250000
      49       -10.2972       0.250000
      50       -10.0175       0.250000
      51       -9.70103       0.250000
      52       -9.54501       0.250000
      53       -9.34892       0.250000
      54       -9.26671       0.250000
      55       -9.15797       0.250000
      56       -8.90541       0.250000
      57       -8.81794       0.250000
      58       -8.74627       0.250000
      59       -8.68530       0.250000
      60       -8.66255       0.250000
      61       -8.52788       0.250000
      62       -8.45318       0.250000
      63       -8.33754       0.250000
      64       -8.10825       0.250000
      65       -8.08074       0.250000
      66       -7.92547       0.250000
      67       -7.89659       0.250000
      68       -7.85053       0.250000
      69       -7.75465       0.250000
      70       -7.67104       0.250000
      71       -7.59114       0.250000
      72       -7.50376       0.250000
      73       -7.35288       0.250000
      74       -7.23763       0.250000
      75       -7.21634       0.250000
      76       -7.04644       0.250000
      77       -6.96887       0.250000
      78       -6.89007       0.250000
      79       -6.75702       0.250000
      80       -6.63359       0.250000
      81       -6.39540       0.250000
      82       -6.32642       0.250000
      83       -6.29613       0.250000
      84       -6.26593       0.250000
      85       -5.83306       0.250000
      86       -5.75193       0.250000
      87       -5.62888       0.250000
      88       -5.40582       0.250000
      89       -5.23090       0.250000
      90       -5.09486       0.250000
      91       -4.94399       0.250000
      92       -4.84622       0.250000
      93       -4.63853       0.250000
      94       -4.49152       0.250000
      95       -4.14169       0.250000
      96       -4.03028       0.250000
      97       -3.96337       0.250000
      98       -3.89068       0.250000
      99       -3.48462       0.250000
     100       -3.47005       0.250000
     101       -2.41926       0.250000
     102       -1.96819       0.250000
     103       -1.65895       0.231039
     104       -1.18436    5.82821e-05
     105      -0.634347        0.00000
     106       0.423784        0.00000
     107       0.505221        0.00000
     108       0.641356        0.00000
     109       0.840586        0.00000
     110       0.882078        0.00000
     111        1.20178        0.00000
     112        1.55385        0.00000
     113        1.71570        0.00000
     114        1.95683        0.00000
     115        2.16127        0.00000
     116        2.38011        0.00000
     117        3.22265        0.00000
     118        3.96115        0.00000
     119        4.21276        0.00000
     120        4.46076        0.00000
     121        4.86593        0.00000
     122        5.36577        0.00000
     123        5.58605        0.00000

 10/10 kpoint (Cartesian) = 0.0405875 0.0233659 0.00000 (0 pws)
       1       -35.1455       0.125000
       2       -21.3294       0.125000
       3       -21.3095       0.125000
       4       -20.7004       0.125000
       5       -20.6450       0.125000
       6       -20.1971       0.125000
       7       -20.1373       0.125000
       8       -19.4256       0.125000
       9       -19.2251       0.125000
      10       -19.1985       0.125000
      11       -19.1925       0.125000
      12       -18.7735       0.125000
      13       -18.5700       0.125000
      14       -18.0505       0.125000
      15       -17.9849       0.125000
      16       -17.7398       0.125000
      17       -17.5698       0.125000
      18       -16.7630       0.125000
      19       -16.6748       0.125000
      20       -16.5879       0.125000
      21       -16.4918       0.125000
      22       -16.3679       0.125000
      23       -16.0741       0.125000
      24       -16.0288       0.125000
      25       -15.8643       0.125000
      26       -15.4948       0.125000
      27       -14.9420       0.125000
      28       -14.9048       0.125000
      29       -14.4775       0.125000
      30       -13.9632       0.125000
      31       -13.8507       0.125000
      32       -13.8128       0.125000
      33       -13.6541       0.125000
      34       -13.2134       0.125000
      35       -13.0647       0.125000
      36       -12.8233       0.125000
      37       -12.5618       0.125000
      38       -12.4927       0.125000
      39       -12.3049       0.125000
      40       -12.1657       0.125000
      41       -11.8103       0.125000
      42       -11.6418       0.125000
      43       -11.6079       0.125000
      44       -11.3872       0.125000
      45       -11.1779       0.125000
      46       -11.1119       0.125000
      47       -10.4032       0.125000
      48       -10.2016       0.125000
      49       -10.1462       0.125000
      50       -10.1311       0.125000
      51       -9.93949       0.125000
      52       -9.65458       0.125000
      53       -9.13974       0.125000
      54       -9.07410       0.125000
      55       -9.01382       0.125000
      56       -8.95729       0.125000
      57       -8.89568       0.125000
      58       -8.73939       0.125000
      59       -8.70988       0.125000
      60       -8.67254       0.125000
      61       -8.48914       0.125000
      62       -8.44386       0.125000
      63       -8.36338       0.125000
      64       -8.27741       0.125000
      65       -8.23972       0.125000
      66       -8.18387       0.125000
      67       -8.06811       0.125000
      68       -7.72587       0.125000
      69       -7.67537       0.125000
      70       -7.39660       0.125000
      71       -7.33892       0.125000
      72       -7.33369       0.125000
      73       -7.31685       0.125000
      74       -7.24312       0.125000
      75       -7.23498       0.125000
      76       -7.13238       0.125000
      77       -7.00393       0.125000
      78       -6.98729       0.125000
      79       -6.90061       0.125000
      80       -6.80525       0.125000
      81       -6.46335       0.125000
      82       -6.34529       0.125000
      83       -6.14885       0.125000
      84       -5.97520       0.125000
      85       -5.75277       0.125000
      86       -5.67464       0.125000
      87       -5.67107       0.125000
      88       -5.57842       0.125000
      89       -5.44438       0.125000
      90       -5.18493       0.125000
      91       -5.11965       0.125000
      92       -4.61466       0.125000
      93       -4.41908       0.125000
      94       -4.21773       0.125000
      95       -4.13436       0.125000
      96       -4.12156       0.125000
      97       -4.02788       0.125000
      98       -3.99930       0.125000
      99       -3.90753       0.125000
     100       -2.90858       0.125000
     101       -2.75969       0.125000
     102       -1.85409       0.124966
     103       -1.57144      0.0874807
     104       -1.39937      0.0128759
     105      -0.261060        0.00000
     106     -0.0433095        0.00000
     107       0.574934        0.00000
     108       0.766523        0.00000
     109       0.829146        0.00000
     110        1.15015        0.00000
     111        1.18907        0.00000
     112        1.39747        0.00000
     113        1.50217        0.00000
     114        1.65801        0.00000
     115        2.44087        0.00000
     116        3.09091        0.00000
     117        3.15173        0.00000
     118        3.24606        0.00000
     119        4.05722        0.00000
     120        4.66275        0.00000
     121        5.09349        0.00000
     122        5.66075        0.00000
     123        5.69837        0.00000

 EFERMI = -1.521032700048662 eV
 OUT.ABACUS/ final etot is -8136.047946586757 eV


 --------------------------------------------
 !FINAL_ETOT_IS -8136.047946586757 eV
 --------------------------------------------






  |CLASS_NAME---------|NAME---------------|TIME(Sec)-----|CALLS----|AVG------|PER%-------
                                      total         181.00         7       26.   1.0e+02%
                 Driver         driver_line         180.97         1   1.8e+02    1.e+02%
               PW_Basis  setup_struc_factor        0.21787         1      0.22      0.12%
            ORB_control      read_orb_first        0.11124         1      0.11     0.061%
          LCAO_Orbitals       Read_Orbitals        0.11123         1      0.11     0.061%
            ORB_control      set_orb_tables         6.0420         1       6.0       3.3%
         ORB_gen_tables          gen_tables         6.0420         1       6.0       3.3%
          ORB_table_phi          init_Table         4.3056         1       4.3       2.4%
          ORB_table_phi      cal_ST_Phi12_R         4.2949       210     0.020       2.4%
         ORB_table_beta     init_Table_Beta         1.3229         1       1.3      0.73%
         ORB_table_beta       VNL_PhiBeta_R         1.3184       104     0.013      0.73%
              ppcell_vl           init_vloc        0.77588         1      0.78      0.43%
        ESolver_KS_LCAO                 Run         173.32         1   1.7e+02       96.%
        ESolver_KS_LCAO           beforescf         1.9402         1       1.9       1.1%
        ESolver_KS_LCAO        beforesolver        0.11216         1      0.11     0.062%
        ESolver_KS_LCAO     set_matrix_grid        0.11168         1      0.11     0.062%
         Grid_Technique                init        0.10311         1      0.10     0.057%
                 Charge          atomic_rho         1.1352         1       1.1      0.63%
               PW_Basis          recip2real         4.4551        92     0.048       2.5%
               PW_Basis    gathers_scatterp         2.2378        92     0.024       1.2%
              Potential            init_pot        0.68150         1      0.68      0.38%
              Potential  update_from_charge         11.122        18      0.62       6.1%
              Potential           cal_v_eff         11.059        18      0.61       6.1%
           H_Hartree_pw           v_hartree         1.7621        18     0.098      0.97%
               PW_Basis          real2recip         5.1153       142     0.036       2.8%
               PW_Basis    gatherp_scatters         2.6561       142     0.019       1.5%
                  PotXC           cal_v_eff         9.1888        18      0.51       5.1%
          XC_Functional                v_xc         9.1225        18      0.51       5.0%
            HSolverLCAO               solve         119.24        17       7.0       66.%
             HamiltLCAO            updateHk         39.679       170      0.23       22.%
           OperatorLCAO                init         39.678       510     0.078       22.%
                   Veff        contributeHk         38.433       170      0.23       21.%
                 Gint_k        folding_vl_k         38.432       170      0.23       21.%
                 Gint_k              Distri         38.430       170      0.23       21.%
           OperatorLCAO       folding_fixed         1.0106       170    0.0059      0.56%
               LCAO_nnr      folding_fixedH        0.69661       170    0.0041      0.38%
            HSolverLCAO     hamiltSolvePsiK         42.369       170      0.25       23.%
              DiagoElpa          elpa_solve         41.246       170      0.24       23.%
          ElecStateLCAO            psiToRho         37.186        17       2.2       21.%
              elecstate              cal_dm         1.2875        17     0.076      0.71%
           psiMulPsiMpi              pdgemm         1.1401       170    0.0067      0.63%
      Local_Orbital_wfc      wfc_2d_to_grid        0.64910       170    0.0038      0.36%
                 Charge             mix_rho         2.6819        16      0.17       1.5%
 ----------------------------------------------------------------------------------------

 CLASS_NAME---------|NAME---------------|MEMORY(MB)--------
                                         1546.
        ORB_table_phi               Jl(x)          107.2
        Charge_Mixing                Rrho          8.789
        Charge_Mixing               dRrho          7.690
        Charge_Mixing                drho          7.690
        Grid_Meshcell        index2normal          3.876
        ORB_table_phi         Table_SR&TR          2.758
             PW_Basis           struc_fac          1.648
               Charge                 rho          1.099
               Charge            rho_save          1.099
               Charge            rho_core          1.099
            Potential   v_effective_fixed          1.099
            Potential              vr_eff          1.099
        Charge_Mixing           rho_save2          1.099
 ----------------------------------------------------------

 Start  Time  : Fri Nov  8 17:12:45 2024
 Finish Time  : Fri Nov  8 17:15:46 2024
 Total  Time  : 0 h 3 mins 1 secs 
