  51  51   0   0
  0.5138078E+02  0.1230000E-08  0.1230000E-08  0.2000000E-08  0.5000000E-15
  1.000000000000000E-004
  CAR 
                                         
      5.97203598    -33.53442268  301     -3.01667134      1.00000000
    -33.534  0.0000E+00  0.0000E+00
    -33.403  0.0000E+00  0.0000E+00
    -33.271  0.0000E+00  0.0000E+00
    -33.139  0.0000E+00  0.0000E+00
    -33.008  0.0000E+00  0.0000E+00
    -32.876  0.0000E+00  0.0000E+00
    -32.744  0.0000E+00  0.0000E+00
    -32.613  0.0000E+00  0.0000E+00
    -32.481  0.0000E+00  0.0000E+00
    -32.349  0.0000E+00  0.0000E+00
    -32.218  0.0000E+00  0.0000E+00
    -32.086  0.0000E+00  0.0000E+00
    -31.954  0.8244E-08  0.1086E-08
    -31.822  0.1345E+00  0.1771E-01
    -31.691  0.1372E+02  0.1824E+01
    -31.559  0.1337E+01  0.2000E+01
    -31.427  0.2899E-05  0.2000E+01
    -31.296  0.0000E+00  0.2000E+01
    -31.164  0.0000E+00  0.2000E+01
    -31.032  0.0000E+00  0.2000E+01
    -30.901  0.0000E+00  0.2000E+01
    -30.769  0.0000E+00  0.2000E+01
    -30.637  0.0000E+00  0.2000E+01
    -30.506  0.0000E+00  0.2000E+01
    -30.374  0.0000E+00  0.2000E+01
    -30.242  0.0000E+00  0.2000E+01
    -30.111  0.0000E+00  0.2000E+01
    -29.979  0.0000E+00  0.2000E+01
    -29.847  0.0000E+00  0.2000E+01
    -29.715  0.0000E+00  0.2000E+01
    -29.584  0.0000E+00  0.2000E+01
    -29.452  0.0000E+00  0.2000E+01
    -29.320  0.0000E+00  0.2000E+01
    -29.189  0.0000E+00  0.2000E+01
    -29.057  0.0000E+00  0.2000E+01
    -28.925  0.0000E+00  0.2000E+01
    -28.794  0.0000E+00  0.2000E+01
    -28.662  0.0000E+00  0.2000E+01
    -28.530  0.0000E+00  0.2000E+01
    -28.399  0.0000E+00  0.2000E+01
    -28.267  0.0000E+00  0.2000E+01
    -28.135  0.0000E+00  0.2000E+01
    -28.004  0.0000E+00  0.2000E+01
    -27.872  0.0000E+00  0.2000E+01
    -27.740  0.0000E+00  0.2000E+01
    -27.608  0.0000E+00  0.2000E+01
    -27.477  0.0000E+00  0.2000E+01
    -27.345  0.0000E+00  0.2000E+01
    -27.213  0.0000E+00  0.2000E+01
    -27.082  0.0000E+00  0.2000E+01
    -26.950  0.0000E+00  0.2000E+01
    -26.818  0.0000E+00  0.2000E+01
    -26.687  0.0000E+00  0.2000E+01
    -26.555  0.0000E+00  0.2000E+01
    -26.423  0.0000E+00  0.2000E+01
    -26.292  0.0000E+00  0.2000E+01
    -26.160  0.0000E+00  0.2000E+01
    -26.028  0.0000E+00  0.2000E+01
    -25.897  0.0000E+00  0.2000E+01
    -25.765  0.0000E+00  0.2000E+01
    -25.633  0.0000E+00  0.2000E+01
    -25.501  0.0000E+00  0.2000E+01
    -25.370  0.0000E+00  0.2000E+01
    -25.238  0.0000E+00  0.2000E+01
    -25.106  0.0000E+00  0.2000E+01
    -24.975  0.0000E+00  0.2000E+01
    -24.843  0.0000E+00  0.2000E+01
    -24.711  0.0000E+00  0.2000E+01
    -24.580  0.0000E+00  0.2000E+01
    -24.448  0.0000E+00  0.2000E+01
    -24.316  0.0000E+00  0.2000E+01
    -24.185  0.0000E+00  0.2000E+01
    -24.053  0.0000E+00  0.2000E+01
    -23.921  0.0000E+00  0.2000E+01
    -23.789  0.0000E+00  0.2000E+01
    -23.658  0.0000E+00  0.2000E+01
    -23.526  0.0000E+00  0.2000E+01
    -23.394  0.0000E+00  0.2000E+01
    -23.263  0.0000E+00  0.2000E+01
    -23.131  0.0000E+00  0.2000E+01
    -22.999  0.0000E+00  0.2000E+01
    -22.868  0.0000E+00  0.2000E+01
    -22.736  0.0000E+00  0.2000E+01
    -22.604  0.0000E+00  0.2000E+01
    -22.473  0.9439E-08  0.2000E+01
    -22.341  0.3968E-01  0.2005E+01
    -22.209  0.4408E+01  0.2586E+01
    -22.078  0.9215E+01  0.3799E+01
    -21.946  0.4910E+01  0.4446E+01
    -21.814  0.1075E+02  0.5861E+01
    -21.682  0.5541E+01  0.6591E+01
    -21.551  0.7672E+01  0.7601E+01
    -21.419  0.1275E+02  0.9281E+01
    -21.287  0.5458E+01  0.9999E+01
    -21.156  0.3844E+01  0.1051E+02
    -21.024  0.9100E+01  0.1170E+02
    -20.892  0.1075E+02  0.1312E+02
    -20.761  0.1004E+02  0.1444E+02
    -20.629  0.8433E+01  0.1555E+02
    -20.497  0.2035E+00  0.1558E+02
    -20.366  0.1308E+02  0.1730E+02
    -20.234  0.4000E+01  0.1783E+02
    -20.102  0.1858E+02  0.2027E+02
    -19.971  0.1302E+01  0.2045E+02
    -19.839  0.3609E+01  0.2092E+02
    -19.707  0.1408E+02  0.2277E+02
    -19.575  0.8355E+01  0.2388E+02
    -19.444  0.6003E+01  0.2467E+02
    -19.312  0.6772E+01  0.2556E+02
    -19.180  0.1412E+02  0.2742E+02
    -19.049  0.7459E+01  0.2840E+02
    -18.917  0.4856E+01  0.2904E+02
    -18.785  0.5184E+01  0.2972E+02
    -18.654  0.5357E+01  0.3043E+02
    -18.522  0.1378E+02  0.3224E+02
    -18.390  0.1128E+02  0.3373E+02
    -18.259  0.8755E+01  0.3488E+02
    -18.127  0.4933E+01  0.3553E+02
    -17.995  0.1515E+02  0.3752E+02
    -17.864  0.4808E+01  0.3816E+02
    -17.732  0.3794E+01  0.3866E+02
    -17.600  0.6013E+01  0.3945E+02
    -17.468  0.1567E+02  0.4151E+02
    -17.337  0.3948E+01  0.4203E+02
    -17.205  0.2148E+02  0.4486E+02
    -17.073  0.6878E+01  0.4577E+02
    -16.942  0.3477E+01  0.4622E+02
    -16.810  0.8882E+01  0.4739E+02
    -16.678  0.4023E+01  0.4792E+02
    -16.547  0.8920E+01  0.4910E+02
    -16.415  0.8831E+01  0.5026E+02
    -16.283  0.3173E+01  0.5068E+02
    -16.152  0.9236E+01  0.5189E+02
    -16.020  0.5923E+01  0.5267E+02
    -15.888  0.1294E+02  0.5438E+02
    -15.757  0.1201E+02  0.5596E+02
    -15.625  0.2130E+01  0.5624E+02
    -15.493  0.4215E+01  0.5680E+02
    -15.361  0.2767E+01  0.5716E+02
    -15.230  0.1017E+02  0.5850E+02
    -15.098  0.2210E+02  0.6141E+02
    -14.966  0.4707E+01  0.6203E+02
    -14.835  0.1146E+02  0.6354E+02
    -14.703  0.1043E+02  0.6491E+02
    -14.571  0.6422E+01  0.6576E+02
    -14.440  0.1567E+02  0.6782E+02
    -14.308  0.4732E+01  0.6844E+02
    -14.176  0.9650E+00  0.6857E+02
    -14.045  0.4154E+01  0.6912E+02
    -13.913  0.1015E+02  0.7045E+02
    -13.781  0.1676E+02  0.7266E+02
    -13.650  0.1778E+02  0.7500E+02
    -13.518  0.1670E+01  0.7522E+02
    -13.386  0.2524E+01  0.7556E+02
    -13.254  0.4890E+00  0.7562E+02
    -13.123  0.1119E+02  0.7709E+02
    -12.991  0.1385E+02  0.7892E+02
    -12.859  0.2046E+02  0.8161E+02
    -12.728  0.1269E+01  0.8178E+02
    -12.596  0.4842E+01  0.8242E+02
    -12.464  0.1763E+02  0.8474E+02
    -12.333  0.1080E+02  0.8616E+02
    -12.201  0.3628E+01  0.8664E+02
    -12.069  0.3009E+01  0.8703E+02
    -11.938  0.1230E+02  0.8865E+02
    -11.806  0.3583E+01  0.8912E+02
    -11.674  0.1615E+02  0.9125E+02
    -11.542  0.1766E+02  0.9358E+02
    -11.411  0.1346E+02  0.9535E+02
    -11.279  0.8485E+01  0.9647E+02
    -11.147  0.5426E+01  0.9718E+02
    -11.016  0.7922E+01  0.9823E+02
    -10.884  0.1296E+02  0.9993E+02
    -10.752  0.1693E+02  0.1022E+03
    -10.621  0.2052E+01  0.1024E+03
    -10.489  0.2057E+02  0.1051E+03
    -10.357  0.3865E+01  0.1057E+03
    -10.226  0.2447E+02  0.1089E+03
    -10.094  0.2542E+02  0.1122E+03
     -9.962  0.1848E+02  0.1147E+03
     -9.831  0.1501E+02  0.1166E+03
     -9.699  0.1722E+02  0.1189E+03
     -9.567  0.2772E+02  0.1225E+03
     -9.435  0.2067E+02  0.1253E+03
     -9.304  0.2744E+02  0.1289E+03
     -9.172  0.2352E+02  0.1320E+03
     -9.040  0.2859E+02  0.1357E+03
     -8.909  0.2017E+02  0.1384E+03
     -8.777  0.1750E+02  0.1407E+03
     -8.645  0.2344E+02  0.1438E+03
     -8.514  0.1726E+02  0.1461E+03
     -8.382  0.1656E+02  0.1482E+03
     -8.250  0.1517E+02  0.1502E+03
     -8.119  0.1617E+02  0.1524E+03
     -7.987  0.2856E+02  0.1561E+03
     -7.855  0.1625E+02  0.1583E+03
     -7.724  0.1636E+02  0.1604E+03
     -7.592  0.8094E+01  0.1615E+03
     -7.460  0.2189E+01  0.1618E+03
     -7.328  0.1758E+02  0.1641E+03
     -7.197  0.3247E+02  0.1684E+03
     -7.065  0.1559E+02  0.1704E+03
     -6.933  0.4360E+01  0.1710E+03
     -6.802  0.1933E+02  0.1735E+03
     -6.670  0.1271E+02  0.1752E+03
     -6.538  0.1601E+02  0.1773E+03
     -6.407  0.7071E+01  0.1783E+03
     -6.275  0.1251E+02  0.1799E+03
     -6.143  0.1541E+02  0.1819E+03
     -6.012  0.1367E+02  0.1837E+03
     -5.880  0.2011E+02  0.1864E+03
     -5.748  0.7934E+01  0.1874E+03
     -5.617  0.1341E+02  0.1892E+03
     -5.485  0.3527E+01  0.1897E+03
     -5.353  0.7901E+01  0.1907E+03
     -5.221  0.8551E+01  0.1918E+03
     -5.090  0.1197E+02  0.1934E+03
     -4.958  0.1800E+02  0.1958E+03
     -4.826  0.1533E+02  0.1978E+03
     -4.695  0.3193E+01  0.1982E+03
     -4.563  0.8421E-01  0.1982E+03
     -4.431  0.3826E-04  0.1982E+03
     -4.300  0.2986E+01  0.1986E+03
     -4.168  0.1712E+02  0.2009E+03
     -4.036  0.5208E+01  0.2016E+03
     -3.905  0.1113E-02  0.2016E+03
     -3.773  0.4195E+00  0.2016E+03
     -3.641  0.2938E+01  0.2020E+03
     -3.510  0.2517E+00  0.2020E+03
     -3.378  0.4310E+01  0.2026E+03
     -3.246  0.1233E+02  0.2042E+03
     -3.114  0.1078E+02  0.2056E+03
     -2.983  0.2772E+01  0.2060E+03
     -2.851  0.2498E+01  0.2063E+03
     -2.719  0.9179E+01  0.2075E+03
     -2.588  0.8608E-01  0.2076E+03
     -2.456  0.8540E-01  0.2076E+03
     -2.324  0.3168E+01  0.2080E+03
     -2.193  0.2883E+01  0.2084E+03
     -2.061  0.6132E+00  0.2084E+03
     -1.929  0.6063E-05  0.2084E+03
     -1.798  0.3840E-07  0.2084E+03
     -1.666  0.2003E+00  0.2085E+03
     -1.534  0.9533E+01  0.2097E+03
     -1.403  0.1233E+02  0.2113E+03
     -1.271  0.3250E+01  0.2118E+03
     -1.139  0.1550E-03  0.2118E+03
     -1.007  0.1125E+01  0.2119E+03
     -0.876  0.1099E+02  0.2134E+03
     -0.744  0.2290E+02  0.2164E+03
     -0.612  0.1839E+02  0.2188E+03
     -0.481  0.5418E+01  0.2195E+03
     -0.349  0.2667E+00  0.2196E+03
     -0.217  0.4539E+01  0.2202E+03
     -0.086  0.1138E+02  0.2217E+03
      0.046  0.1029E+02  0.2230E+03
      0.178  0.9226E+00  0.2231E+03
      0.309  0.1608E+02  0.2252E+03
      0.441  0.7625E+01  0.2263E+03
      0.573  0.3235E+01  0.2267E+03
      0.705  0.1101E+02  0.2281E+03
      0.836  0.1689E+02  0.2304E+03
      0.968  0.6296E+01  0.2312E+03
      1.100  0.1102E+02  0.2326E+03
      1.231  0.1495E+02  0.2346E+03
      1.363  0.8072E+01  0.2357E+03
      1.495  0.1518E+02  0.2377E+03
      1.626  0.2310E+02  0.2407E+03
      1.758  0.1539E+02  0.2427E+03
      1.890  0.2751E+02  0.2464E+03
      2.021  0.8304E+01  0.2474E+03
      2.153  0.1615E+02  0.2496E+03
      2.285  0.2609E+02  0.2530E+03
      2.416  0.2885E+02  0.2568E+03
      2.548  0.7446E+01  0.2578E+03
      2.680  0.6257E+01  0.2586E+03
      2.812  0.9044E+01  0.2598E+03
      2.943  0.5124E+01  0.2605E+03
      3.075  0.9211E+01  0.2617E+03
      3.207  0.2755E+01  0.2621E+03
      3.338  0.4604E+01  0.2627E+03
      3.470  0.3089E-01  0.2627E+03
      3.602  0.3336E+01  0.2631E+03
      3.733  0.3412E+01  0.2636E+03
      3.865  0.1041E-02  0.2636E+03
      3.997  0.6398E-06  0.2636E+03
      4.128  0.2963E+00  0.2636E+03
      4.260  0.3049E+01  0.2640E+03
      4.392  0.3000E-01  0.2640E+03
      4.523  0.1847E-08  0.2640E+03
      4.655  0.0000E+00  0.2640E+03
      4.787  0.0000E+00  0.2640E+03
      4.919  0.0000E+00  0.2640E+03
      5.050  0.0000E+00  0.2640E+03
      5.182  0.0000E+00  0.2640E+03
      5.314  0.0000E+00  0.2640E+03
      5.445  0.0000E+00  0.2640E+03
      5.577  0.0000E+00  0.2640E+03
      5.709  0.0000E+00  0.2640E+03
      5.840  0.0000E+00  0.2640E+03
      5.972  0.0000E+00  0.2640E+03
