 vasp.5.4.4.18Apr17-6-g9f103f2a35 (build Aug 13 2022 23:40:43) complex          
  
 executed on             LinuxIFC date 2024.11.10  03:44:59
 running on   48 total cores
 distrk:  each k-point on   48 cores,    1 groups
 distr:  one band on NCORES_PER_BAND=   8 cores,    6 groups


--------------------------------------------------------------------------------------------------------


 INCAR:
 POTCAR:    PAW_PBE C 08Apr2002                   
 POTCAR:    PAW_PBE O 08Apr2002                   
 POTCAR:    PAW_PBE C 08Apr2002                   
   VRHFIN =C: s2p2                                                              
   LEXCH  = PE                                                                  
   EATOM  =   147.1560 eV,   10.8157 Ry                                         
                                                                                
   TITEL  = PAW_PBE C 08Apr2002                                                 
   LULTRA =        F    use ultrasoft PP ?                                      
   IUNSCR =        1    unscreen: 0-lin 1-nonlin 2-no                           
   RPACOR =    1.200    partial core radius                                     
   POMASS =   12.011; ZVAL   =    4.000    mass and valenz                      
   RCORE  =    1.500    outmost cutoff radius                                   
   RWIGS  =    1.630; RWIGS  =    0.863    wigner-seitz radius (au A)           
   ENMAX  =  400.000; ENMIN  =  300.000 eV                                      
   ICORE  =        2    local potential                                         
   LCOR   =        T    correct aug charges                                     
   LPAW   =        T    paw PP                                                  
   EAUG   =  644.873                                                            
   DEXC   =    0.000                                                            
   RMAX   =    1.529    core radius for proj-oper                               
   RAUG   =    1.300    factor for augmentation sphere                          
   RDEP   =    1.501    radius for radial grids                                 
   RDEPT  =    1.300    core radius for aug-charge                              
                                                                                
   Atomic configuration                                                         
    4 entries                                                                   
     n  l   j            E        occ.                                          
     1  0  0.50      -273.3789   2.0000                                         
     2  0  0.50       -13.7508   2.0000                                         
     2  1  0.50        -5.2854   2.0000                                         
     3  2  1.50        -5.4423   0.0000                                         
   Description                                                                  
     l       E           TYP  RCUT    TYP  RCUT                                 
     0    -13.7508458     23  1.200                                             
     0     -8.2022199     23  1.200                                             
     1     -5.2854383     23  1.500                                             
     1     34.0145650     23  1.500                                             
     2     -5.4423304      7  1.500                                             
  local pseudopotential read in
  partial core-charges read in
  partial kinetic energy density read in
  atomic valenz-charges read in
  non local Contribution for L=           0  read in
    real space projection operators read in
  non local Contribution for L=           0  read in
    real space projection operators read in
  non local Contribution for L=           1  read in
    real space projection operators read in
  non local Contribution for L=           1  read in
    real space projection operators read in
    PAW grid and wavefunctions read in
 
   number of l-projection  operators is LMAX  =           4
   number of lm-projection operators is LMMAX =           8
 
 POTCAR:    PAW_PBE O 08Apr2002                   
   VRHFIN =O: s2p4                                                              
   LEXCH  = PE                                                                  
   EATOM  =   432.3788 eV,   31.7789 Ry                                         
                                                                                
   TITEL  = PAW_PBE O 08Apr2002                                                 
   LULTRA =        F    use ultrasoft PP ?                                      
   IUNSCR =        1    unscreen: 0-lin 1-nonlin 2-no                           
   RPACOR =    1.200    partial core radius                                     
   POMASS =   16.000; ZVAL   =    6.000    mass and valenz                      
   RCORE  =    1.520    outmost cutoff radius                                   
   RWIGS  =    1.550; RWIGS  =    0.820    wigner-seitz radius (au A)           
   ENMAX  =  400.000; ENMIN  =  300.000 eV                                      
   ICORE  =        2    local potential                                         
   LCOR   =        T    correct aug charges                                     
   LPAW   =        T    paw PP                                                  
   EAUG   =  605.392                                                            
   DEXC   =    0.000                                                            
   RMAX   =    1.553    core radius for proj-oper                               
   RAUG   =    1.300    factor for augmentation sphere                          
   RDEP   =    1.550    radius for radial grids                                 
   RDEPT  =    1.329    core radius for aug-charge                              
                                                                                
   Atomic configuration                                                         
    4 entries                                                                   
     n  l   j            E        occ.                                          
     1  0  0.50      -514.6923   2.0000                                         
     2  0  0.50       -23.9615   2.0000                                         
     2  1  0.50        -9.0305   4.0000                                         
     3  2  1.50        -9.5241   0.0000                                         
   Description                                                                  
     l       E           TYP  RCUT    TYP  RCUT                                 
     0    -23.9615318     23  1.200                                             
     0     -9.5240782     23  1.200                                             
     1     -9.0304911     23  1.520                                             
     1      8.1634956     23  1.520                                             
     2     -9.5240782      7  1.500                                             
  local pseudopotential read in
  partial core-charges read in
  partial kinetic energy density read in
  kinetic energy density of atom read in
  atomic valenz-charges read in
  non local Contribution for L=           0  read in
    real space projection operators read in
  non local Contribution for L=           0  read in
    real space projection operators read in
  non local Contribution for L=           1  read in
    real space projection operators read in
  non local Contribution for L=           1  read in
    real space projection operators read in
    PAW grid and wavefunctions read in
 
   number of l-projection  operators is LMAX  =           4
   number of lm-projection operators is LMMAX =           8
 

 ----------------------------------------------------------------------------- 
|                                                                             |
|  ADVICE TO THIS USER RUNNING 'VASP/VAMP'   (HEAR YOUR MASTER'S VOICE ...):  |
|                                                                             |
|      You have a (more or less) 'large supercell' and for larger cells       |
|      it might be more efficient to use real space projection opertators     |
|      So try LREAL= Auto  in the INCAR   file.                               |
|      Mind:          For very  accurate calculation you might also keep the  |
|      reciprocal projection scheme          (i.e. LREAL=.FALSE.)             |
|                                                                             |
 ----------------------------------------------------------------------------- 

  PAW_PBE C 08Apr2002                   :
 energy of atom  1       EATOM= -147.1560
 kinetic energy error for atom=    0.0288 (will be added to EATOM!!)
  PAW_PBE O 08Apr2002                   :
 energy of atom  2       EATOM= -432.3788
 kinetic energy error for atom=    0.1156 (will be added to EATOM!!)
 
 
 POSCAR: generated by phonopy                    
  positions in direct lattice
  No initial velocities read in
 exchange correlation table for  LEXCH =        8
   RHO(1)=    0.500       N(1)  =     2000
   RHO(2)=  100.500       N(2)  =     4000

 VTST: version 3.2, (02/03/18)

 CHAIN: initializing optimizer
 
 OPT: Using VASP Dynamics algorithm
 CHAIN: Read ICHAIN            0
 
 POSCAR: generated by phonopy                    
  positions in direct lattice
  No initial velocities read in
 


--------------------------------------------------------------------------------------------------------


 ion  position               nearest neighbor table
   1  0.000  0.000  0.418-  26 1.42  30 1.42  46 1.42
   2  0.200  0.000  0.418-  27 1.42  26 1.42  47 1.42
   3  0.400  0.001  0.418-  28 1.41  27 1.42  48 1.43
   4  0.600  0.000  0.418-  29 1.42  28 1.42  49 1.42
   5  0.800  0.000  0.418-  30 1.42  29 1.42  50 1.42
   6  0.000  0.200  0.418-  31 1.42  35 1.42  26 1.42
   7  0.200  0.200  0.418-  32 1.42  31 1.42  27 1.42
   8  0.400  0.200  0.418-  33 1.42  32 1.42  28 1.42
   9  0.600  0.200  0.418-  34 1.42  33 1.42  29 1.42
  10  0.800  0.200  0.418-  35 1.42  34 1.42  30 1.42
  11  0.000  0.400  0.418-  36 1.42  40 1.42  31 1.42
  12  0.200  0.400  0.418-  37 1.42  36 1.42  32 1.42
  13  0.400  0.400  0.418-  51 1.00  38 1.42  37 1.42  33 1.42
  14  0.600  0.400  0.418-  39 1.42  38 1.42  34 1.42
  15  0.800  0.400  0.418-  40 1.42  39 1.42  35 1.42
  16  0.000  0.600  0.418-  41 1.42  45 1.42  36 1.42
  17  0.200  0.600  0.418-  42 1.42  41 1.42  37 1.42
  18  0.400  0.600  0.418-  43 1.42  42 1.42  38 1.42
  19  0.600  0.600  0.418-  44 1.42  43 1.42  39 1.42
  20  0.800  0.600  0.418-  45 1.42  44 1.42  40 1.42
  21  0.000  0.800  0.418-  46 1.42  50 1.42  41 1.42
  22  0.200  0.800  0.418-  47 1.42  46 1.42  42 1.42
  23  0.400  0.800  0.418-  48 1.42  47 1.42  43 1.42
  24  0.600  0.800  0.418-  49 1.42  48 1.42  44 1.42
  25  0.800  0.800  0.418-  50 1.42  49 1.42  45 1.42
  26  0.067  0.067  0.418-   1 1.42   2 1.42   6 1.42
  27  0.267  0.067  0.418-   2 1.42   7 1.42   3 1.42
  28  0.467  0.067  0.418-   3 1.41   4 1.42   8 1.42
  29  0.667  0.067  0.418-   4 1.42   5 1.42   9 1.42
  30  0.867  0.067  0.418-   5 1.42   1 1.42  10 1.42
  31  0.067  0.267  0.418-   6 1.42   7 1.42  11 1.42
  32  0.267  0.267  0.418-   7 1.42   8 1.42  12 1.42
  33  0.467  0.267  0.418-   8 1.42   9 1.42  13 1.42  51 1.74
  34  0.667  0.267  0.418-   9 1.42  10 1.42  14 1.42
  35  0.867  0.267  0.418-  10 1.42   6 1.42  15 1.42
  36  0.067  0.467  0.418-  11 1.42  12 1.42  16 1.42
  37  0.267  0.467  0.418-  12 1.42  13 1.42  17 1.42  51 1.74
  38  0.467  0.467  0.418-  13 1.42  14 1.42  18 1.42  51 1.74
  39  0.667  0.467  0.418-  14 1.42  15 1.42  19 1.42
  40  0.867  0.467  0.418-  15 1.42  11 1.42  20 1.42
  41  0.067  0.667  0.418-  16 1.42  17 1.42  21 1.42
  42  0.267  0.667  0.418-  17 1.42  18 1.42  22 1.42
  43  0.467  0.667  0.418-  18 1.42  19 1.42  23 1.42
  44  0.667  0.667  0.418-  19 1.42  20 1.42  24 1.42
  45  0.867  0.667  0.418-  20 1.42  16 1.42  25 1.42
  46  0.067  0.867  0.418-  21 1.42  22 1.42   1 1.42
  47  0.267  0.867  0.418-  22 1.42  23 1.42   2 1.42
  48  0.467  0.867  0.418-  23 1.42  24 1.42   3 1.43
  49  0.667  0.867  0.418-  24 1.42  25 1.42   4 1.42
  50  0.867  0.867  0.418-  25 1.42  21 1.42   5 1.42
  51  0.400  0.400  0.468-  13 1.00  38 1.74  37 1.74  33 1.74
 
  LATTYP: Found a hexagonal cell.
 ALAT       =    12.2999994816
 C/A-ratio  =     1.6260163287
  
  Lattice vectors:
  
 A1 = (   6.1499993860, -10.6521122225,   0.0000000000)
 A2 = ( -12.3000001905,   0.0000000000,   0.0000000000)
 A3 = (   0.0000000000,   0.0000000000, -20.0000000000)


Analysis of symmetry for initial positions (statically):
=====================================================================
 Subroutine PRICEL returns:
 Original cell was already a primitive cell.
 

 Routine SETGRP: Setting up the symmetry group for a 
 hexagonal supercell.


 Subroutine GETGRP returns: Found  1 space group operations
 (whereof  1 operations were pure point group operations)
 out of a pool of 24 trial point group operations.


The static configuration has the point symmetry C_1 .


Analysis of symmetry for dynamics (positions and initial velocities):
=====================================================================
 Subroutine PRICEL returns:
 Original cell was already a primitive cell.
 

 Routine SETGRP: Setting up the symmetry group for a 
 hexagonal supercell.


 Subroutine GETGRP returns: Found  1 space group operations
 (whereof  1 operations were pure point group operations)
 out of a pool of 24 trial point group operations.


The dynamic configuration has the point symmetry C_1 .


 Subroutine INISYM returns: Found  1 space group operations
 (whereof  1 operations are pure point group operations),
 and found     1 'primitive' translations

 
 
 KPOINTS: K-POINTS                                

Automatic generation of k-mesh.
Space group operators:
 irot       det(A)        alpha          n_x          n_y          n_z        tau_x        tau_y        tau_z
    1     1.000000     0.000000     1.000000     0.000000     0.000000     0.000000     0.000000     0.000000
 
 Subroutine IBZKPT returns following result:
 ===========================================
 
 Found      5 irreducible k-points:
 
 Following reciprocal coordinates:
            Coordinates               Weight
  0.000000  0.000000  0.000000      1.000000
  0.333333  0.000000  0.000000      2.000000
  0.000000  0.333333  0.000000      2.000000
  0.333333  0.333333  0.000000      2.000000
 -0.333333  0.333333  0.000000      2.000000
 
 Following cartesian coordinates:
            Coordinates               Weight
  0.000000  0.000000  0.000000      1.000000
  0.027100 -0.015646  0.000000      2.000000
  0.000000  0.031293  0.000000      2.000000
  0.027100  0.015646  0.000000      2.000000
 -0.027100  0.046939  0.000000      2.000000
 


--------------------------------------------------------------------------------------------------------




 Dimension of arrays:
   k-points           NKPTS =      5   k-points in BZ     NKDIM =      5   number of bands    NBANDS=    132
   number of dos      NEDOS =    301   number of ions     NIONS =     51
   non local maximal  LDIM  =      4   non local SUM 2l+1 LMDIM =      8
   total plane-waves  NPLWV = 896000
   max r-space proj   IRMAX =      1   max aug-charges    IRDMAX=  35685
   dimension x,y,z NGX =    80 NGY =   80 NGZ =  140
   dimension x,y,z NGXF=   160 NGYF=  160 NGZF=  280
   support grid    NGXF=   320 NGYF=  320 NGZF=  560
   ions per type =              50   1
   NGX,Y,Z   is equivalent  to a cutoff of  10.81, 10.81, 11.64 a.u.
   NGXF,Y,Z  is equivalent  to a cutoff of  21.63, 21.63, 23.27 a.u.

 SYSTEM =                                          
 POSCAR =  generated by phonopy                    

 Startparameter for this run:
   NWRITE =      2    write-flag & timer
   PREC   = accura    normal or accurate (medium, high low for compatibility)
   ISTART =      1    job   : 0-new  1-cont  2-samecut
   ICHARG =      1    charge: 1-file 2-atom 10-const
   ISPIN  =      1    spin polarized calculation?
   LNONCOLLINEAR =      F non collinear calculations
   LSORBIT =      F    spin-orbit coupling
   INIWAV =      1    electr: 0-lowe 1-rand  2-diag
   LASPH  =      F    aspherical Exc in radial PAW
   METAGGA=      F    non-selfconsistent MetaGGA calc.

 Electronic Relaxation 1
   ENCUT  =  400.0 eV  29.40 Ry    5.42 a.u.  20.06 20.06 32.61*2*pi/ulx,y,z
   ENINI  =  400.0     initial cutoff
   ENAUG  =  644.9 eV  augmentation charge cutoff
   NELM   =    300;   NELMIN=  2; NELMDL=  0     # of ELM steps 
   EDIFF  = 0.1E-04   stopping-criterion for ELM
   LREAL  =      F    real-space projection
   NLSPLINE    = F    spline interpolate recip. space projectors
   LCOMPAT=      F    compatible to vasp.4.4
   GGA_COMPAT  = T    GGA compatible to vasp.4.4-vasp.4.6
   LMAXPAW     = -100 max onsite density
   LMAXMIX     =    2 max onsite mixed and CHGCAR
   VOSKOWN=      0    Vosko Wilk Nusair interpolation
   ROPT   =    0.00000   0.00000
 Ionic relaxation
   EDIFFG = -.1E-02   stopping-criterion for IOM
   NSW    =      1    number of steps for IOM
   NBLOCK =      1;   KBLOCK =      1    inner block; outer block 
   IBRION =     -1    ionic relax: 0-MD 1-quasi-New 2-CG
   NFREE  =      0    steps in history (QN), initial steepest desc. (CG)
   ISIF   =      2    stress and relaxation
   IWAVPR =     10    prediction:  0-non 1-charg 2-wave 3-comb
   ISYM   =      2    0-nonsym 1-usesym 2-fastsym
   LCORR  =      T    Harris-Foulkes like correction to forces

   POTIM  = 0.5000    time-step for ionic-motion
   TEIN   =    0.0    initial temperature
   TEBEG  =    0.0;   TEEND  =   0.0 temperature during run
   SMASS  =  -3.00    Nose mass-parameter (am)
   estimated Nose-frequenzy (Omega)   =  0.10E-29 period in steps =****** mass=  -0.346E-26a.u.
   SCALEE = 1.0000    scale energy and forces
   NPACO  =    256;   APACO  = 16.0  distance and # of slots for P.C.
   PSTRESS=    0.0 pullay stress

  Mass of Ions in am
   POMASS =  12.01 16.00
  Ionic Valenz
   ZVAL   =   4.00  6.00
  Atomic Wigner-Seitz radii
   RWIGS  =  -1.00 -1.00
  virtual crystal weights 
   VCA    =   1.00  1.00
   NELECT =     206.0000    total number of electrons
   NUPDOWN=      -1.0000    fix difference up-down

 DOS related values:
   EMIN   =  10.00;   EMAX   =-10.00  energy-range for DOS
   EFERMI =   0.00
   ISMEAR =     0;   SIGMA  =   0.05  broadening in eV -4-tet -1-fermi 0-gaus

 Electronic relaxation 2 (details)
   IALGO  =     68    algorithm
   LDIAG  =      T    sub-space diagonalisation (order eigenvalues)
   LSUBROT=      F    optimize rotation matrix (better conditioning)
   TURBO    =      0    0=normal 1=particle mesh
   IRESTART =      0    0=no restart 2=restart with 2 vectors
   NREBOOT  =      0    no. of reboots
   NMIN     =      0    reboot dimension
   EREF     =   0.00    reference energy to select bands
   IMIX   =      4    mixing-type and parameters
     AMIX     =   0.40;   BMIX     =  1.00
     AMIX_MAG =   1.60;   BMIX_MAG =  1.00
     AMIN     =   0.10
     WC   =   100.;   INIMIX=   1;  MIXPRE=   1;  MAXMIX= -45

 Intra band minimization:
   WEIMIN = 0.0000     energy-eigenvalue tresh-hold
   EBREAK =  0.19E-07  absolut break condition
   DEPER  =   0.30     relativ break condition  

   TIME   =   0.40     timestep for ELM

  volume/ion in A,a.u.               =      51.38       346.73
  Fermi-wavevector in a.u.,A,eV,Ry     =   0.701305  1.325274  6.691736  0.491829
  Thomas-Fermi vector in A             =   1.785695
 
 Write flags
   LWAVE        =      F    write WAVECAR
   LDOWNSAMPLE  =      F    k-point downsampling of WAVECAR
   LCHARG       =      F    write CHGCAR
   LVTOT        =      F    write LOCPOT, total local potential
   LVHAR        =      F    write LOCPOT, Hartree potential only
   LELF         =      F    write electronic localiz. function (ELF)
   LORBIT       =      0    0 simple, 1 ext, 2 COOP (PROOUT), +10 PAW based schemes


 Dipole corrections
   LMONO  =      F    monopole corrections only (constant potential shift)
   LDIPOL =      F    correct potential (dipole corrections)
   IDIPOL =      0    1-x, 2-y, 3-z, 4-all directions 
   EPSILON=  1.0000000 bulk dielectric constant

 Exchange correlation treatment:
   GGA     =    --    GGA type
   LEXCH   =     8    internal setting for exchange type
   VOSKOWN=      0    Vosko Wilk Nusair interpolation
   LHFCALC =     F    Hartree Fock is set to
   LHFONE  =     F    Hartree Fock one center treatment
   AEXX    =    0.0000 exact exchange contribution

 Linear response parameters
   LEPSILON=     F    determine dielectric tensor
   LRPA    =     F    only Hartree local field effects (RPA)
   LNABLA  =     F    use nabla operator in PAW spheres
   LVEL    =     F    velocity operator in full k-point grid
   LINTERFAST=   F  fast interpolation
   KINTER  =     0    interpolate to denser k-point grid
   CSHIFT  =0.1000    complex shift for real part using Kramers Kronig
   OMEGAMAX=  -1.0    maximum frequency
   DEG_THRESHOLD= 0.2000000E-02 threshold for treating states as degnerate
   RTIME   =   -0.100 relaxation time in fs
  (WPLASMAI=    0.000 imaginary part of plasma frequency in eV, 0.658/RTIME)
   DFIELD  = 0.0000000 0.0000000 0.0000000 field for delta impulse in time
 
 Orbital magnetization related:
   ORBITALMAG=     F  switch on orbital magnetization
   LCHIMAG   =     F  perturbation theory with respect to B field
   DQ        =  0.001000  dq finite difference perturbation B field
   LLRAUG    =     F  two centre corrections for induced B field



--------------------------------------------------------------------------------------------------------


 Static calculation
 charge density and potential will be updated during run
 non-spin polarized calculation
 RMM-DIIS sequential band-by-band and
  variant of blocked Davidson during initial phase
 perform sub-space diagonalisation
    before iterative eigenvector-optimisation
 modified Broyden-mixing scheme, WC =      100.0
 initial mixing is a Kerker type mixing with AMIX =  0.4000 and BMIX =      1.0000
 Hartree-type preconditioning will be used
 using additional bands           29
 reciprocal scheme for non local part
 use partial core corrections
 calculate Harris-corrections to forces 
   (improved forces if not selfconsistent)
 use gradient corrections 
 use of overlap-Matrix (Vanderbilt PP)
 Gauss-broadening in eV      SIGMA  =   0.05


--------------------------------------------------------------------------------------------------------


  energy-cutoff  :      400.00
  volume of cell :     2620.42
      direct lattice vectors                 reciprocal lattice vectors
    12.300000191  0.000000000  0.000000000     0.081300812 -0.046939053  0.000000000
     6.150000804 10.652112223  0.000000000     0.000000000  0.093878095  0.000000000
     0.000000000  0.000000000 20.000000000     0.000000000  0.000000000  0.050000000

  length of vectors
    12.300000191 12.300000191 20.000000000     0.093878095  0.093878095  0.050000000


 
 old parameters found on file WAVECAR:
  energy-cutoff  :      400.00
  volume of cell :     2620.42
      direct lattice vectors                 reciprocal lattice vectors
    12.300000191  0.000000000  0.000000000     0.081300812 -0.046939053  0.000000000
     6.150000804 10.652112223  0.000000000     0.000000000  0.093878095  0.000000000
     0.000000000  0.000000000 20.000000000     0.000000000  0.000000000  0.050000000

  length of vectors

 
 k-points in units of 2pi/SCALE and weight: K-POINTS                                
   0.00000000  0.00000000  0.00000000       0.111
   0.02710027 -0.01564635  0.00000000       0.222
   0.00000000  0.03129270  0.00000000       0.222
   0.02710027  0.01564635  0.00000000       0.222
  -0.02710027  0.04693905  0.00000000       0.222
 
 k-points in reciprocal lattice and weights: K-POINTS                                
   0.00000000  0.00000000  0.00000000       0.111
   0.33333333  0.00000000  0.00000000       0.222
   0.00000000  0.33333333  0.00000000       0.222
   0.33333333  0.33333333  0.00000000       0.222
  -0.33333333  0.33333333  0.00000000       0.222
 
 position of ions in fractional coordinates (direct lattice) 
   0.00000000  0.00000000  0.41799748
   0.20000000  0.00000000  0.41799748
   0.40000000  0.00081301  0.41799748
   0.60000000  0.00000000  0.41799748
   0.80000000  0.00000000  0.41799748
   0.00000000  0.20000000  0.41799748
   0.20000000  0.20000000  0.41799748
   0.40000000  0.20000000  0.41799748
   0.60000000  0.20000000  0.41799748
   0.80000000  0.20000000  0.41799748
   0.00000000  0.40000000  0.41799748
   0.20000000  0.40000000  0.41799748
   0.40000000  0.40000000  0.41799748
   0.60000000  0.40000000  0.41799748
   0.80000000  0.40000000  0.41799748
   0.00000000  0.60000000  0.41799748
   0.20000000  0.60000000  0.41799748
   0.40000000  0.60000000  0.41799748
   0.60000000  0.60000000  0.41799748
   0.80000000  0.60000000  0.41799748
   0.00000000  0.80000000  0.41799748
   0.20000000  0.80000000  0.41799748
   0.40000000  0.80000000  0.41799748
   0.60000000  0.80000000  0.41799748
   0.80000000  0.80000000  0.41799748
   0.06666667  0.06666660  0.41800609
   0.26666667  0.06666660  0.41800609
   0.46666667  0.06666660  0.41800609
   0.66666667  0.06666660  0.41800609
   0.86666667  0.06666660  0.41800609
   0.06666667  0.26666660  0.41800609
   0.26666667  0.26666660  0.41800609
   0.46666667  0.26666660  0.41800609
   0.66666667  0.26666660  0.41800609
   0.86666667  0.26666660  0.41800609
   0.06666667  0.46666660  0.41800609
   0.26666667  0.46666660  0.41800609
   0.46666667  0.46666660  0.41800609
   0.66666667  0.46666660  0.41800609
   0.86666667  0.46666660  0.41800609
   0.06666667  0.66666660  0.41800609
   0.26666667  0.66666660  0.41800609
   0.46666667  0.66666660  0.41800609
   0.66666667  0.66666660  0.41800609
   0.86666667  0.66666660  0.41800609
   0.06666667  0.86666660  0.41800609
   0.26666667  0.86666660  0.41800609
   0.46666667  0.86666660  0.41800609
   0.66666667  0.86666660  0.41800609
   0.86666667  0.86666660  0.41800609
   0.40000000  0.40000000  0.46800609
 
 position of ions in cartesian coordinates  (Angst):
   0.00000000  0.00000000  8.35994958
   2.46000004  0.00000000  8.35994958
   4.92500008  0.00866025  8.35994958
   7.38000011  0.00000000  8.35994958
   9.84000015  0.00000000  8.35994958
   1.23000016  2.13042244  8.35994958
   3.69000020  2.13042244  8.35994958
   6.15000024  2.13042244  8.35994958
   8.61000028  2.13042244  8.35994958
  11.07000031  2.13042244  8.35994958
   2.46000032  4.26084489  8.35994958
   4.92000036  4.26084489  8.35994958
   7.38000040  4.26084489  8.35994958
   9.84000044  4.26084489  8.35994958
  12.30000047  4.26084489  8.35994958
   3.69000048  6.39126733  8.35994958
   6.15000052  6.39126733  8.35994958
   8.61000056  6.39126733  8.35994958
  11.07000060  6.39126733  8.35994958
  13.53000064  6.39126733  8.35994958
   4.92000064  8.52168978  8.35994958
   7.38000068  8.52168978  8.35994958
   9.84000072  8.52168978  8.35994958
  12.30000076  8.52168978  8.35994958
  14.76000080  8.52168978  8.35994958
   1.22999970  0.71014014  8.36012184
   3.68999974  0.71014014  8.36012184
   6.14999977  0.71014014  8.36012184
   8.60999981  0.71014014  8.36012184
  11.06999985  0.71014014  8.36012184
   2.45999986  2.84056258  8.36012184
   4.91999990  2.84056258  8.36012184
   7.37999994  2.84056258  8.36012184
   9.83999997  2.84056258  8.36012184
  12.30000001  2.84056258  8.36012184
   3.69000002  4.97098503  8.36012184
   6.15000006  4.97098503  8.36012184
   8.61000010  4.97098503  8.36012184
  11.07000013  4.97098503  8.36012184
  13.53000017  4.97098503  8.36012184
   4.92000018  7.10140747  8.36012184
   7.38000022  7.10140747  8.36012184
   9.84000026  7.10140747  8.36012184
  12.30000030  7.10140747  8.36012184
  14.76000033  7.10140747  8.36012184
   6.15000034  9.23182991  8.36012184
   8.61000038  9.23182991  8.36012184
  11.07000042  9.23182991  8.36012184
  13.53000046  9.23182991  8.36012184
  15.99000049  9.23182991  8.36012184
   7.38000040  4.26084489  9.36012184
 


--------------------------------------------------------------------------------------------------------


 k-point  1 :   0.0000 0.0000 0.0000  plane waves:   47639
 k-point  2 :   0.3333 0.0000 0.0000  plane waves:   47601
 k-point  3 :   0.0000 0.3333 0.0000  plane waves:   47601
 k-point  4 :   0.3333 0.3333 0.0000  plane waves:   47601
 k-point  5 :  -0.3333 0.3333 0.0000  plane waves:   47598

 maximum and minimum number of plane-waves per node :      5975     5928

 maximum number of plane-waves:     47639
 maximum index in each direction: 
   IXMAX=   20   IYMAX=   20   IZMAX=   32
   IXMIN=  -20   IYMIN=  -20   IZMIN=  -32


 parallel 3D FFT for wavefunctions:
    minimum data exchange during FFTs selected (reduces bandwidth)
 parallel 3D FFT for charge:
    minimum data exchange during FFTs selected (reduces bandwidth)


 total amount of memory used by VASP MPI-rank0    90113. kBytes
=======================================================================

   base      :      30000. kBytes
   nonl-proj :       8674. kBytes
   fftplans  :      26248. kBytes
   grid      :      14579. kBytes
   one-center:         21. kBytes
   wavefun   :      10591. kBytes
 
     INWAV:  cpu time    0.8357: real time    0.8363
 Broyden mixing: mesh for mixing (old mesh)
   NGX = 41   NGY = 41   NGZ = 65
  (NGX  =160   NGY  =160   NGZ  =280)
  gives a total of 109265 points

 initial charge density was supplied:
 number of electron     206.0000000 magnetization 
 keeping initial charge density in first step


--------------------------------------------------------------------------------------------------------


 Maximum index for augmentation-charges         1119 (set IRDMAX)


--------------------------------------------------------------------------------------------------------


 First call to EWALD:  gamma=   0.129
 Maximum number of real-space cells 3x 3x 2
 Maximum number of reciprocal cells 3x 3x 4

    FEWALD:  cpu time    0.0016: real time    0.0030


--------------------------------------- Iteration      1(   1)  ---------------------------------------


    POTLOK:  cpu time    0.1067: real time    0.1091
    SETDIJ:  cpu time    0.0835: real time    0.0849
     EDDAV:  cpu time    4.1066: real time    4.1100
       DOS:  cpu time    0.0005: real time    0.0005
    CHARGE:  cpu time    0.3976: real time    0.3982
    MIXING:  cpu time    0.0054: real time    0.0056
    --------------------------------------------
      LOOP:  cpu time    4.7003: real time    4.7082

 eigenvalue-minimisations  :  1356
 total energy-change (2. order) :-0.4532924E+03  (-0.2841260E+02)
 number of electron     206.0000000 magnetization 
 augmentation part        5.5094735 magnetization 

 Broyden mixing:
  rms(total) = 0.49728E-01    rms(broyden)= 0.49698E-01
  rms(prec ) = 0.51177E-01
  weight for this iteration     100.00

 Free energy of the ion-electron system (eV)
  ---------------------------------------------------
  alpha Z        PSCENC =        82.54348252
  Ewald energy   TEWEN  =     34516.62638459
  -Hartree energ DENC   =    -41034.92994286
  -exchange      EXHF   =         0.00000000
  -V(xc)+E(xc)   XCENC  =       721.38007492
  PAW double counting   =     22781.19595426   -22817.52509957
  entropy T*S    EENTRO =        -0.00049707
  eigenvalues    EBANDS =     -2491.20713858
  atomic energy  EATOM  =      7788.62438962
  Solvation  Ediel_sol  =         0.00000000
  ---------------------------------------------------
  free energy    TOTEN  =      -453.29239217 eV

  energy without entropy =     -453.29189511  energy(sigma->0) =     -453.29214364


--------------------------------------------------------------------------------------------------------




--------------------------------------- Iteration      1(   2)  ---------------------------------------


    POTLOK:  cpu time    0.1071: real time    0.1073
    SETDIJ:  cpu time    0.0804: real time    0.0820
    EDDIAG:  cpu time    0.8902: real time    0.8909
  RMM-DIIS:  cpu time    3.7381: real time    3.7403
    ORTHCH:  cpu time    0.0418: real time    0.0418
       DOS:  cpu time    0.0004: real time    0.0004
    CHARGE:  cpu time    0.3929: real time    0.3930
    MIXING:  cpu time    0.0055: real time    0.0055
    --------------------------------------------
      LOOP:  cpu time    5.2564: real time    5.2612

 eigenvalue-minimisations  :  1420
 total energy-change (2. order) :-0.9879774E+00  (-0.9904029E+00)
 number of electron     206.0000000 magnetization 
 augmentation part        5.5408855 magnetization 

 Broyden mixing:
  rms(total) = 0.20344E-01    rms(broyden)= 0.20289E-01
  rms(prec ) = 0.21710E-01
  weight for this iteration     100.00

 eigenvalues of (default mixing * dielectric matrix)
  average eigenvalue GAMMA=   0.7414
  0.7414

 Free energy of the ion-electron system (eV)
  ---------------------------------------------------
  alpha Z        PSCENC =        82.54348252
  Ewald energy   TEWEN  =     34516.62638459
  -Hartree energ DENC   =    -41032.41004709
  -exchange      EXHF   =         0.00000000
  -V(xc)+E(xc)   XCENC  =       721.27315748
  PAW double counting   =     22842.10682510   -22878.38483138
  entropy T*S    EENTRO =        -0.00009593
  eigenvalues    EBANDS =     -2494.65963449
  atomic energy  EATOM  =      7788.62438962
  Solvation  Ediel_sol  =         0.00000000
  ---------------------------------------------------
  free energy    TOTEN  =      -454.28036959 eV

  energy without entropy =     -454.28027365  energy(sigma->0) =     -454.28032162


--------------------------------------------------------------------------------------------------------




--------------------------------------- Iteration      1(   3)  ---------------------------------------


    POTLOK:  cpu time    0.0989: real time    0.1014
    SETDIJ:  cpu time    0.0805: real time    0.0820
    EDDIAG:  cpu time    0.8893: real time    0.8902
  RMM-DIIS:  cpu time    4.1723: real time    4.1748
    ORTHCH:  cpu time    0.0420: real time    0.0420
       DOS:  cpu time    0.0004: real time    0.0004
    CHARGE:  cpu time    0.3918: real time    0.3923
    MIXING:  cpu time    0.0046: real time    0.0046
    --------------------------------------------
      LOOP:  cpu time    5.6798: real time    5.6877

 eigenvalue-minimisations  :  1584
 total energy-change (2. order) :-0.5232996E-01  (-0.5857258E-01)
 number of electron     206.0000000 magnetization 
 augmentation part        5.5434411 magnetization 

 Broyden mixing:
  rms(total) = 0.15398E-01    rms(broyden)= 0.15384E-01
  rms(prec ) = 0.15959E-01
  weight for this iteration     100.00

 eigenvalues of (default mixing * dielectric matrix)
  average eigenvalue GAMMA=   0.6834
  0.6834  0.6834

 Free energy of the ion-electron system (eV)
  ---------------------------------------------------
  alpha Z        PSCENC =        82.54348252
  Ewald energy   TEWEN  =     34516.62638459
  -Hartree energ DENC   =    -41033.10280537
  -exchange      EXHF   =         0.00000000
  -V(xc)+E(xc)   XCENC  =       721.30547115
  PAW double counting   =     22830.85428272   -22867.14700733
  entropy T*S    EENTRO =        -0.00012488
  eigenvalues    EBANDS =     -2494.03677255
  atomic energy  EATOM  =      7788.62438962
  Solvation  Ediel_sol  =         0.00000000
  ---------------------------------------------------
  free energy    TOTEN  =      -454.33269955 eV

  energy without entropy =     -454.33257466  energy(sigma->0) =     -454.33263710


--------------------------------------------------------------------------------------------------------




--------------------------------------- Iteration      1(   4)  ---------------------------------------


    POTLOK:  cpu time    0.0977: real time    0.0994
    SETDIJ:  cpu time    0.0881: real time    0.0893
    EDDIAG:  cpu time    0.8850: real time    0.8856
  RMM-DIIS:  cpu time    4.1209: real time    4.1247
    ORTHCH:  cpu time    0.0495: real time    0.0496
       DOS:  cpu time    0.0004: real time    0.0004
    CHARGE:  cpu time    0.3932: real time    0.3933
    MIXING:  cpu time    0.0041: real time    0.0041
    --------------------------------------------
      LOOP:  cpu time    5.6390: real time    5.6464

 eigenvalue-minimisations  :  1578
 total energy-change (2. order) :-0.3864734E-02  (-0.4060217E-02)
 number of electron     206.0000000 magnetization 
 augmentation part        5.5459698 magnetization 

 Broyden mixing:
  rms(total) = 0.15191E-01    rms(broyden)= 0.15189E-01
  rms(prec ) = 0.15668E-01
  weight for this iteration     100.00

 eigenvalues of (default mixing * dielectric matrix)
  average eigenvalue GAMMA=   0.9824
  1.1992  1.1992  0.5487

 Free energy of the ion-electron system (eV)
  ---------------------------------------------------
  alpha Z        PSCENC =        82.54348252
  Ewald energy   TEWEN  =     34516.62638459
  -Hartree energ DENC   =    -41033.44324530
  -exchange      EXHF   =         0.00000000
  -V(xc)+E(xc)   XCENC  =       721.32073041
  PAW double counting   =     22822.11805710   -22858.41846446
  entropy T*S    EENTRO =        -0.00010830
  eigenvalues    EBANDS =     -2493.70779045
  atomic energy  EATOM  =      7788.62438962
  Solvation  Ediel_sol  =         0.00000000
  ---------------------------------------------------
  free energy    TOTEN  =      -454.33656428 eV

  energy without entropy =     -454.33645598  energy(sigma->0) =     -454.33651013


--------------------------------------------------------------------------------------------------------




--------------------------------------- Iteration      1(   5)  ---------------------------------------


    POTLOK:  cpu time    0.0983: real time    0.0986
    SETDIJ:  cpu time    0.0794: real time    0.0795
    EDDIAG:  cpu time    0.8874: real time    0.8878
  RMM-DIIS:  cpu time    3.9840: real time    3.9883
    ORTHCH:  cpu time    0.0424: real time    0.0426
       DOS:  cpu time    0.0003: real time    0.0003
    CHARGE:  cpu time    0.3916: real time    0.3922
    MIXING:  cpu time    0.0056: real time    0.0056
    --------------------------------------------
      LOOP:  cpu time    5.4889: real time    5.4949

 eigenvalue-minimisations  :  1516
 total energy-change (2. order) :-0.1083146E-03  (-0.3187124E-03)
 number of electron     206.0000000 magnetization 
 augmentation part        5.5449527 magnetization 

 Broyden mixing:
  rms(total) = 0.61430E-02    rms(broyden)= 0.61421E-02
  rms(prec ) = 0.63033E-02
  weight for this iteration     100.00

 eigenvalues of (default mixing * dielectric matrix)
  average eigenvalue GAMMA=   1.1604
  1.5205  1.5205  0.5649  1.0356

 Free energy of the ion-electron system (eV)
  ---------------------------------------------------
  alpha Z        PSCENC =        82.54348252
  Ewald energy   TEWEN  =     34516.62638459
  -Hartree energ DENC   =    -41034.34672767
  -exchange      EXHF   =         0.00000000
  -V(xc)+E(xc)   XCENC  =       721.35852760
  PAW double counting   =     22795.21587643   -22831.53585254
  entropy T*S    EENTRO =        -0.00011197
  eigenvalues    EBANDS =     -2492.82264117
  atomic energy  EATOM  =      7788.62438962
  Solvation  Ediel_sol  =         0.00000000
  ---------------------------------------------------
  free energy    TOTEN  =      -454.33667259 eV

  energy without entropy =     -454.33656063  energy(sigma->0) =     -454.33661661


--------------------------------------------------------------------------------------------------------




--------------------------------------- Iteration      1(   6)  ---------------------------------------


    POTLOK:  cpu time    0.0995: real time    0.1008
    SETDIJ:  cpu time    0.0877: real time    0.0892
    EDDIAG:  cpu time    0.8856: real time    0.8864
  RMM-DIIS:  cpu time    4.0225: real time    4.0264
    ORTHCH:  cpu time    0.0419: real time    0.0419
       DOS:  cpu time    0.0004: real time    0.0004
    CHARGE:  cpu time    0.3925: real time    0.3925
    MIXING:  cpu time    0.0042: real time    0.0042
    --------------------------------------------
      LOOP:  cpu time    5.5343: real time    5.5417

 eigenvalue-minimisations  :  1533
 total energy-change (2. order) :-0.2585578E-04  (-0.4842731E-04)
 number of electron     206.0000000 magnetization 
 augmentation part        5.5443501 magnetization 

 Broyden mixing:
  rms(total) = 0.13776E-02    rms(broyden)= 0.13757E-02
  rms(prec ) = 0.14335E-02
  weight for this iteration     100.00

 eigenvalues of (default mixing * dielectric matrix)
  average eigenvalue GAMMA=   1.2139
  2.1255  1.2165  1.2165  0.9475  0.5635

 Free energy of the ion-electron system (eV)
  ---------------------------------------------------
  alpha Z        PSCENC =        82.54348252
  Ewald energy   TEWEN  =     34516.62638459
  -Hartree energ DENC   =    -41034.99499945
  -exchange      EXHF   =         0.00000000
  -V(xc)+E(xc)   XCENC  =       721.38554257
  PAW double counting   =     22775.92170630   -22812.25474225
  entropy T*S    EENTRO =        -0.00011340
  eigenvalues    EBANDS =     -2492.18834895
  atomic energy  EATOM  =      7788.62438962
  Solvation  Ediel_sol  =         0.00000000
  ---------------------------------------------------
  free energy    TOTEN  =      -454.33669845 eV

  energy without entropy =     -454.33658505  energy(sigma->0) =     -454.33664175


--------------------------------------------------------------------------------------------------------




--------------------------------------- Iteration      1(   7)  ---------------------------------------


    POTLOK:  cpu time    0.0985: real time    0.0987
    SETDIJ:  cpu time    0.0798: real time    0.0800
    EDDIAG:  cpu time    0.8993: real time    0.8997
  RMM-DIIS:  cpu time    2.9223: real time    2.9240
    ORTHCH:  cpu time    0.0426: real time    0.0426
       DOS:  cpu time    0.0003: real time    0.0003
    --------------------------------------------
      LOOP:  cpu time    4.0428: real time    4.0452

 eigenvalue-minimisations  :  1031
 total energy-change (2. order) :-0.7774914E-05  (-0.2174856E-05)
 number of electron     206.0000000 magnetization 
 augmentation part        5.5443501 magnetization 

 Free energy of the ion-electron system (eV)
  ---------------------------------------------------
  alpha Z        PSCENC =        82.54348252
  Ewald energy   TEWEN  =     34516.62638459
  -Hartree energ DENC   =    -41035.01180898
  -exchange      EXHF   =         0.00000000
  -V(xc)+E(xc)   XCENC  =       721.38578468
  PAW double counting   =     22777.04986889   -22813.38233976
  entropy T*S    EENTRO =        -0.00011445
  eigenvalues    EBANDS =     -2492.17235332
  atomic energy  EATOM  =      7788.62438962
  Solvation  Ediel_sol  =         0.00000000
  ---------------------------------------------------
  free energy    TOTEN  =      -454.33670622 eV

  energy without entropy =     -454.33659177  energy(sigma->0) =     -454.33664900


--------------------------------------------------------------------------------------------------------




 average (electrostatic) potential at core
  the test charge radii are     0.6991  0.7215
  (the norm of the test charge is              1.0000)
       1 -58.2605       2 -58.2624       3 -58.2030       4 -58.0605       5 -58.2038
       6 -58.2599       7 -58.2717       8 -58.1306       9 -58.1329      10 -58.2756
      11 -58.2020      12 -58.1315      13 -60.6845      14 -58.1323      15 -58.2031
      16 -58.0571      17 -58.1316      18 -58.1331      19 -58.0576      20 -58.0647
      21 -58.2031      22 -58.2754      23 -58.2039      24 -58.0644      25 -58.0653
      26 -58.3831      27 -58.2915      28 -58.2186      29 -58.2220      30 -58.2924
      31 -58.2904      32 -58.3125      33 -58.8090      34 -58.3138      35 -58.2924
      36 -58.2205      37 -58.8099      38 -58.8113      39 -58.2215      40 -58.2222
      41 -58.2207      42 -58.3144      43 -58.2216      44 -58.1631      45 -58.1637
      46 -58.2925      47 -58.2927      48 -58.2250      49 -58.1639      50 -58.2229
      51 -81.5729
 
 
 
 E-fermi :  -3.0167     XC(G=0):  -2.2108     alpha+bet : -1.9409


 k-point     1 :       0.0000    0.0000    0.0000
  band No.  band energies     occupation 
      1     -31.7386      2.00000
      2     -22.2707      2.00000
      3     -21.5063      2.00000
      4     -21.5026      2.00000
      5     -21.3946      2.00000
      6     -21.3939      2.00000
      7     -21.3910      2.00000
      8     -20.8735      2.00000
      9     -19.8766      2.00000
     10     -19.8755      2.00000
     11     -19.5500      2.00000
     12     -19.5458      2.00000
     13     -19.5412      2.00000
     14     -19.1885      2.00000
     15     -18.9043      2.00000
     16     -18.8991      2.00000
     17     -18.6461      2.00000
     18     -18.6444      2.00000
     19     -18.6429      2.00000
     20     -17.8799      2.00000
     21     -17.0226      2.00000
     22     -17.0202      2.00000
     23     -16.4776      2.00000
     24     -16.4621      2.00000
     25     -16.4525      2.00000
     26     -16.0482      2.00000
     27     -15.9987      2.00000
     28     -15.9966      2.00000
     29     -15.5014      2.00000
     30     -15.4960      2.00000
     31     -15.4891      2.00000
     32     -15.0888      2.00000
     33     -14.6316      2.00000
     34     -14.6295      2.00000
     35     -14.1494      2.00000
     36     -14.1449      2.00000
     37     -14.1412      2.00000
     38     -13.9690      2.00000
     39     -12.9920      2.00000
     40     -12.9889      2.00000
     41     -12.0314      2.00000
     42     -11.7707      2.00000
     43     -11.7641      2.00000
     44     -11.7577      2.00000
     45     -11.6917      2.00000
     46     -11.6876      2.00000
     47     -11.6549      2.00000
     48     -11.6511      2.00000
     49     -11.6491      2.00000
     50     -11.6419      2.00000
     51     -10.8008      2.00000
     52     -10.7992      2.00000
     53     -10.4288      2.00000
     54     -10.3341      2.00000
     55     -10.2944      2.00000
     56     -10.2878      2.00000
     57     -10.2695      2.00000
     58     -10.0759      2.00000
     59      -9.6868      2.00000
     60      -9.6834      2.00000
     61      -9.3266      2.00000
     62      -9.3238      2.00000
     63      -9.3003      2.00000
     64      -9.2818      2.00000
     65      -9.2776      2.00000
     66      -9.0443      2.00000
     67      -9.0076      2.00000
     68      -9.0034      2.00000
     69      -8.9551      2.00000
     70      -8.9444      2.00000
     71      -8.9413      2.00000
     72      -8.9325      2.00000
     73      -8.9202      2.00000
     74      -8.9179      2.00000
     75      -8.8873      2.00000
     76      -8.4356      2.00000
     77      -7.8053      2.00000
     78      -7.7974      2.00000
     79      -7.3266      2.00000
     80      -7.3216      2.00000
     81      -7.3075      2.00000
     82      -7.3031      2.00000
     83      -7.2993      2.00000
     84      -7.2971      2.00000
     85      -7.1620      2.00000
     86      -7.1597      2.00000
     87      -7.1555      2.00000
     88      -6.7486      2.00000
     89      -6.5101      2.00000
     90      -6.5066      2.00000
     91      -6.2677      2.00000
     92      -6.2490      2.00000
     93      -6.2456      2.00000
     94      -5.9283      2.00000
     95      -5.9164      2.00000
     96      -5.1930      2.00000
     97      -4.7658      2.00000
     98      -4.7624      2.00000
     99      -4.2705      2.00000
    100      -4.2698      2.00000
    101      -4.2609      2.00000
    102      -3.2150      2.00000
    103      -3.2142      2.00000
    104      -2.9157      0.00429
    105      -1.4661      0.00000
    106      -1.4592      0.00000
    107      -1.4504      0.00000
    108      -0.9923      0.00000
    109      -0.9890      0.00000
    110      -0.5443      0.00000
    111       0.4152      0.00000
    112       0.4209      0.00000
    113       0.4274      0.00000
    114       0.5617      0.00000
    115       0.8433      0.00000
    116       0.8466      0.00000
    117       1.2905      0.00000
    118       1.3384      0.00000
    119       1.6808      0.00000
    120       1.8015      0.00000
    121       1.8021      0.00000
    122       1.8028      0.00000
    123       1.8250      0.00000
    124       1.8273      0.00000
    125       2.0310      0.00000
    126       2.1740      0.00000
    127       2.1794      0.00000
    128       2.1836      0.00000
    129       2.3452      0.00000
    130       2.3483      0.00000
    131       2.6286      0.00000
    132       2.6480      0.00000

 k-point     2 :       0.3333    0.0000    0.0000
  band No.  band energies     occupation 
      1     -31.7386      2.00000
      2     -22.1886      2.00000
      3     -21.8683      2.00000
      4     -21.6632      2.00000
      5     -21.4537      2.00000
      6     -21.0360      2.00000
      7     -20.8951      2.00000
      8     -20.7266      2.00000
      9     -20.4208      2.00000
     10     -20.1571      2.00000
     11     -19.7887      2.00000
     12     -19.7033      2.00000
     13     -19.3259      2.00000
     14     -19.2433      2.00000
     15     -19.0578      2.00000
     16     -18.5947      2.00000
     17     -18.4575      2.00000
     18     -18.1230      2.00000
     19     -18.0582      2.00000
     20     -17.5935      2.00000
     21     -17.4984      2.00000
     22     -17.2968      2.00000
     23     -17.2795      2.00000
     24     -16.8510      2.00000
     25     -16.6563      2.00000
     26     -16.1755      2.00000
     27     -15.9782      2.00000
     28     -15.8475      2.00000
     29     -15.2985      2.00000
     30     -15.1697      2.00000
     31     -15.1337      2.00000
     32     -14.8846      2.00000
     33     -14.7804      2.00000
     34     -14.4754      2.00000
     35     -14.4579      2.00000
     36     -13.7702      2.00000
     37     -13.7601      2.00000
     38     -13.1948      2.00000
     39     -13.0898      2.00000
     40     -12.9341      2.00000
     41     -12.9025      2.00000
     42     -12.5858      2.00000
     43     -12.5485      2.00000
     44     -12.3908      2.00000
     45     -12.0181      2.00000
     46     -11.6650      2.00000
     47     -11.4471      2.00000
     48     -11.2962      2.00000
     49     -11.1200      2.00000
     50     -10.9140      2.00000
     51     -10.8495      2.00000
     52     -10.5836      2.00000
     53     -10.5349      2.00000
     54     -10.2861      2.00000
     55     -10.2367      2.00000
     56     -10.1595      2.00000
     57     -10.0472      2.00000
     58      -9.8527      2.00000
     59      -9.8223      2.00000
     60      -9.6540      2.00000
     61      -9.6075      2.00000
     62      -9.5604      2.00000
     63      -9.5287      2.00000
     64      -9.3682      2.00000
     65      -9.3406      2.00000
     66      -9.2589      2.00000
     67      -9.1755      2.00000
     68      -9.1015      2.00000
     69      -9.0801      2.00000
     70      -8.8658      2.00000
     71      -8.7134      2.00000
     72      -8.6627      2.00000
     73      -8.5041      2.00000
     74      -8.4021      2.00000
     75      -8.2874      2.00000
     76      -8.1339      2.00000
     77      -8.0939      2.00000
     78      -8.0654      2.00000
     79      -7.9725      2.00000
     80      -7.8037      2.00000
     81      -7.6197      2.00000
     82      -7.3614      2.00000
     83      -7.3364      2.00000
     84      -7.2656      2.00000
     85      -7.1989      2.00000
     86      -6.9202      2.00000
     87      -6.8734      2.00000
     88      -6.6932      2.00000
     89      -6.5886      2.00000
     90      -6.3478      2.00000
     91      -6.1857      2.00000
     92      -6.0743      2.00000
     93      -5.9210      2.00000
     94      -5.7400      2.00000
     95      -5.6382      2.00000
     96      -5.3240      2.00000
     97      -5.1147      2.00000
     98      -4.9671      2.00000
     99      -4.9249      2.00000
    100      -4.2704      2.00000
    101      -4.1671      2.00000
    102      -3.3363      2.00000
    103      -3.1364      1.99930
    104      -2.8033      0.00000
    105      -1.5924      0.00000
    106      -1.4225      0.00000
    107      -0.8440      0.00000
    108      -0.8188      0.00000
    109      -0.7025      0.00000
    110      -0.6663      0.00000
    111      -0.1306      0.00000
    112      -0.0053      0.00000
    113       0.2938      0.00000
    114       0.7041      0.00000
    115       0.7283      0.00000
    116       1.0980      0.00000
    117       1.1736      0.00000
    118       1.3662      0.00000
    119       1.4623      0.00000
    120       1.5366      0.00000
    121       1.5706      0.00000
    122       1.6367      0.00000
    123       1.8303      0.00000
    124       1.9115      0.00000
    125       2.0427      0.00000
    126       2.2230      0.00000
    127       2.2711      0.00000
    128       2.3288      0.00000
    129       2.3384      0.00000
    130       2.3948      0.00000
    131       2.4578      0.00000
    132       2.7966      0.00000

 k-point     3 :       0.0000    0.3333    0.0000
  band No.  band energies     occupation 
      1     -31.7386      2.00000
      2     -22.1886      2.00000
      3     -21.8690      2.00000
      4     -21.6606      2.00000
      5     -21.4569      2.00000
      6     -21.0328      2.00000
      7     -20.8976      2.00000
      8     -20.7259      2.00000
      9     -20.4194      2.00000
     10     -20.1618      2.00000
     11     -19.7868      2.00000
     12     -19.6993      2.00000
     13     -19.3244      2.00000
     14     -19.2453      2.00000
     15     -19.0623      2.00000
     16     -18.5913      2.00000
     17     -18.4592      2.00000
     18     -18.1227      2.00000
     19     -18.0595      2.00000
     20     -17.5918      2.00000
     21     -17.4989      2.00000
     22     -17.2994      2.00000
     23     -17.2753      2.00000
     24     -16.8502      2.00000
     25     -16.6580      2.00000
     26     -16.1762      2.00000
     27     -15.9766      2.00000
     28     -15.8468      2.00000
     29     -15.2990      2.00000
     30     -15.1690      2.00000
     31     -15.1359      2.00000
     32     -14.8878      2.00000
     33     -14.7832      2.00000
     34     -14.4780      2.00000
     35     -14.4507      2.00000
     36     -13.7696      2.00000
     37     -13.7581      2.00000
     38     -13.1964      2.00000
     39     -13.0882      2.00000
     40     -12.9322      2.00000
     41     -12.9022      2.00000
     42     -12.5853      2.00000
     43     -12.5492      2.00000
     44     -12.3907      2.00000
     45     -12.0212      2.00000
     46     -11.6633      2.00000
     47     -11.4493      2.00000
     48     -11.2991      2.00000
     49     -11.1217      2.00000
     50     -10.9142      2.00000
     51     -10.8494      2.00000
     52     -10.5843      2.00000
     53     -10.5309      2.00000
     54     -10.2832      2.00000
     55     -10.2367      2.00000
     56     -10.1587      2.00000
     57     -10.0486      2.00000
     58      -9.8534      2.00000
     59      -9.8189      2.00000
     60      -9.6557      2.00000
     61      -9.6065      2.00000
     62      -9.5587      2.00000
     63      -9.5270      2.00000
     64      -9.3703      2.00000
     65      -9.3416      2.00000
     66      -9.2582      2.00000
     67      -9.1754      2.00000
     68      -9.0991      2.00000
     69      -9.0831      2.00000
     70      -8.8638      2.00000
     71      -8.7142      2.00000
     72      -8.6653      2.00000
     73      -8.5035      2.00000
     74      -8.4043      2.00000
     75      -8.2890      2.00000
     76      -8.1329      2.00000
     77      -8.1002      2.00000
     78      -8.0655      2.00000
     79      -7.9706      2.00000
     80      -7.8073      2.00000
     81      -7.6176      2.00000
     82      -7.3600      2.00000
     83      -7.3331      2.00000
     84      -7.2649      2.00000
     85      -7.1932      2.00000
     86      -6.9171      2.00000
     87      -6.8749      2.00000
     88      -6.6952      2.00000
     89      -6.5910      2.00000
     90      -6.3438      2.00000
     91      -6.1890      2.00000
     92      -6.0748      2.00000
     93      -5.9224      2.00000
     94      -5.7392      2.00000
     95      -5.6384      2.00000
     96      -5.3232      2.00000
     97      -5.1173      2.00000
     98      -4.9706      2.00000
     99      -4.9234      2.00000
    100      -4.2674      2.00000
    101      -4.1658      2.00000
    102      -3.3361      2.00000
    103      -3.1361      1.99927
    104      -2.8034      0.00000
    105      -1.5956      0.00000
    106      -1.4269      0.00000
    107      -0.8390      0.00000
    108      -0.8190      0.00000
    109      -0.7045      0.00000
    110      -0.6616      0.00000
    111      -0.1295      0.00000
    112      -0.0061      0.00000
    113       0.2926      0.00000
    114       0.7040      0.00000
    115       0.7287      0.00000
    116       1.0997      0.00000
    117       1.1761      0.00000
    118       1.3661      0.00000
    119       1.4629      0.00000
    120       1.5376      0.00000
    121       1.5673      0.00000
    122       1.6346      0.00000
    123       1.8312      0.00000
    124       1.9126      0.00000
    125       2.0416      0.00000
    126       2.2272      0.00000
    127       2.2743      0.00000
    128       2.3355      0.00000
    129       2.4266      0.00000
    130       2.7396      0.00000
    131       3.2544      0.00000
    132       3.6110      0.00000

 k-point     4 :       0.3333    0.3333    0.0000
  band No.  band energies     occupation 
      1     -31.7386      2.00000
      2     -22.1884      2.00000
      3     -21.8698      2.00000
      4     -21.6607      2.00000
      5     -21.4554      2.00000
      6     -21.0332      2.00000
      7     -20.8978      2.00000
      8     -20.7260      2.00000
      9     -20.4201      2.00000
     10     -20.1618      2.00000
     11     -19.7870      2.00000
     12     -19.6991      2.00000
     13     -19.3242      2.00000
     14     -19.2437      2.00000
     15     -19.0621      2.00000
     16     -18.5936      2.00000
     17     -18.4591      2.00000
     18     -18.1224      2.00000
     19     -18.0597      2.00000
     20     -17.5912      2.00000
     21     -17.4976      2.00000
     22     -17.2994      2.00000
     23     -17.2757      2.00000
     24     -16.8527      2.00000
     25     -16.6575      2.00000
     26     -16.1760      2.00000
     27     -15.9801      2.00000
     28     -15.8454      2.00000
     29     -15.2968      2.00000
     30     -15.1685      2.00000
     31     -15.1353      2.00000
     32     -14.8837      2.00000
     33     -14.7787      2.00000
     34     -14.4794      2.00000
     35     -14.4584      2.00000
     36     -13.7693      2.00000
     37     -13.7573      2.00000
     38     -13.1954      2.00000
     39     -13.0892      2.00000
     40     -12.9354      2.00000
     41     -12.9049      2.00000
     42     -12.5860      2.00000
     43     -12.5498      2.00000
     44     -12.3891      2.00000
     45     -12.0203      2.00000
     46     -11.6649      2.00000
     47     -11.4444      2.00000
     48     -11.2931      2.00000
     49     -11.1188      2.00000
     50     -10.9142      2.00000
     51     -10.8512      2.00000
     52     -10.5841      2.00000
     53     -10.5321      2.00000
     54     -10.2868      2.00000
     55     -10.2366      2.00000
     56     -10.1612      2.00000
     57     -10.0490      2.00000
     58      -9.8536      2.00000
     59      -9.8233      2.00000
     60      -9.6499      2.00000
     61      -9.6068      2.00000
     62      -9.5642      2.00000
     63      -9.5264      2.00000
     64      -9.3735      2.00000
     65      -9.3408      2.00000
     66      -9.2601      2.00000
     67      -9.1772      2.00000
     68      -9.0982      2.00000
     69      -9.0819      2.00000
     70      -8.8634      2.00000
     71      -8.7100      2.00000
     72      -8.6649      2.00000
     73      -8.5034      2.00000
     74      -8.4013      2.00000
     75      -8.2856      2.00000
     76      -8.1330      2.00000
     77      -8.0889      2.00000
     78      -8.0649      2.00000
     79      -7.9710      2.00000
     80      -7.8072      2.00000
     81      -7.6227      2.00000
     82      -7.3611      2.00000
     83      -7.3371      2.00000
     84      -7.2667      2.00000
     85      -7.2013      2.00000
     86      -6.9192      2.00000
     87      -6.8742      2.00000
     88      -6.6907      2.00000
     89      -6.5919      2.00000
     90      -6.3531      2.00000
     91      -6.1818      2.00000
     92      -6.0706      2.00000
     93      -5.9237      2.00000
     94      -5.7395      2.00000
     95      -5.6376      2.00000
     96      -5.3222      2.00000
     97      -5.1153      2.00000
     98      -4.9691      2.00000
     99      -4.9192      2.00000
    100      -4.2734      2.00000
    101      -4.1681      2.00000
    102      -3.3358      2.00000
    103      -3.1363      1.99929
    104      -2.8046      0.00000
    105      -1.5911      0.00000
    106      -1.4168      0.00000
    107      -0.8439      0.00000
    108      -0.8203      0.00000
    109      -0.7055      0.00000
    110      -0.6711      0.00000
    111      -0.1309      0.00000
    112      -0.0024      0.00000
    113       0.2950      0.00000
    114       0.7044      0.00000
    115       0.7257      0.00000
    116       1.1001      0.00000
    117       1.1764      0.00000
    118       1.3682      0.00000
    119       1.4641      0.00000
    120       1.5620      0.00000
    121       1.5781      0.00000
    122       1.7500      0.00000
    123       1.8316      0.00000
    124       2.1788      0.00000
    125       2.3352      0.00000
    126       2.3967      0.00000
    127       2.6158      0.00000
    128       2.7876      0.00000
    129       2.8453      0.00000
    130       3.2032      0.00000
    131       3.5933      0.00000
    132       4.1763      0.00000

 k-point     5 :      -0.3333    0.3333    0.0000
  band No.  band energies     occupation 
      1     -31.7387      2.00000
      2     -22.0800      2.00000
      3     -22.0071      2.00000
      4     -21.8024      2.00000
      5     -21.1732      2.00000
      6     -21.1510      2.00000
      7     -20.8647      2.00000
      8     -20.4117      2.00000
      9     -20.3367      2.00000
     10     -20.1730      2.00000
     11     -20.1504      2.00000
     12     -20.1436      2.00000
     13     -19.5682      2.00000
     14     -18.8257      2.00000
     15     -18.6757      2.00000
     16     -18.3706      2.00000
     17     -18.3480      2.00000
     18     -18.3351      2.00000
     19     -17.9310      2.00000
     20     -17.8025      2.00000
     21     -17.6020      2.00000
     22     -17.2609      2.00000
     23     -17.1500      2.00000
     24     -17.1225      2.00000
     25     -16.5425      2.00000
     26     -16.4360      2.00000
     27     -16.2854      2.00000
     28     -15.8077      2.00000
     29     -15.6284      2.00000
     30     -15.1754      2.00000
     31     -14.9694      2.00000
     32     -14.6520      2.00000
     33     -13.9624      2.00000
     34     -13.9409      2.00000
     35     -13.9260      2.00000
     36     -13.8722      2.00000
     37     -13.8621      2.00000
     38     -13.7905      2.00000
     39     -13.6745      2.00000
     40     -13.4941      2.00000
     41     -13.0359      2.00000
     42     -12.4761      2.00000
     43     -12.2538      2.00000
     44     -12.0700      2.00000
     45     -11.8219      2.00000
     46     -11.7724      2.00000
     47     -11.5645      2.00000
     48     -11.5453      2.00000
     49     -11.5218      2.00000
     50     -10.9295      2.00000
     51     -10.8162      2.00000
     52     -10.5314      2.00000
     53     -10.2080      2.00000
     54     -10.2004      2.00000
     55     -10.1932      2.00000
     56     -10.0945      2.00000
     57     -10.0525      2.00000
     58     -10.0216      2.00000
     59      -9.9022      2.00000
     60      -9.7527      2.00000
     61      -9.7501      2.00000
     62      -9.5638      2.00000
     63      -9.4415      2.00000
     64      -9.4046      2.00000
     65      -9.1981      2.00000
     66      -9.0438      2.00000
     67      -9.0364      2.00000
     68      -8.9002      2.00000
     69      -8.8879      2.00000
     70      -8.6849      2.00000
     71      -8.6389      2.00000
     72      -8.6353      2.00000
     73      -8.6256      2.00000
     74      -8.5812      2.00000
     75      -8.3745      2.00000
     76      -8.2487      2.00000
     77      -8.1651      2.00000
     78      -8.0350      2.00000
     79      -7.9815      2.00000
     80      -7.8808      2.00000
     81      -7.8581      2.00000
     82      -7.8556      2.00000
     83      -7.2222      2.00000
     84      -7.1857      2.00000
     85      -7.1282      2.00000
     86      -6.8853      2.00000
     87      -6.7203      2.00000
     88      -6.6155      2.00000
     89      -6.4593      2.00000
     90      -6.2662      2.00000
     91      -6.1042      2.00000
     92      -5.9145      2.00000
     93      -5.9106      2.00000
     94      -5.8967      2.00000
     95      -5.4527      2.00000
     96      -5.4265      2.00000
     97      -5.1237      2.00000
     98      -5.0130      2.00000
     99      -4.9803      2.00000
    100      -4.9561      2.00000
    101      -3.7321      2.00000
    102      -3.4572      2.00000
    103      -3.2795      2.00000
    104      -2.3869      0.00000
    105      -2.2248      0.00000
    106      -0.9311      0.00000
    107      -0.8812      0.00000
    108      -0.8670      0.00000
    109      -0.5374      0.00000
    110      -0.2611      0.00000
    111      -0.2118      0.00000
    112       0.2480      0.00000
    113       0.2571      0.00000
    114       0.2631      0.00000
    115       0.6008      0.00000
    116       0.7925      0.00000
    117       0.9478      0.00000
    118       0.9735      0.00000
    119       1.0609      0.00000
    120       1.7342      0.00000
    121       1.7445      0.00000
    122       1.7673      0.00000
    123       1.8267      0.00000
    124       2.1192      0.00000
    125       2.1224      0.00000
    126       2.1266      0.00000
    127       2.2455      0.00000
    128       2.2472      0.00000
    129       2.3617      0.00000
    130       3.0009      0.00000
    131       3.0107      0.00000
    132       3.0362      0.00000


--------------------------------------------------------------------------------------------------------


 soft charge-density along one line, spin component           1
         0         1         2         3         4         5         6         7         8         9
 total charge-density along one line
 
 pseudopotential strength for first ion, spin component:           1
 10.222  13.594   0.000  -0.000   0.000  -0.000   0.000  -0.000
 13.594  18.076   0.000  -0.000   0.000  -0.000   0.000  -0.001
  0.000   0.000  -4.352  -0.000  -0.000   8.513   0.000   0.000
 -0.000  -0.000  -0.000  -4.344  -0.000   0.000   8.502   0.000
  0.000   0.000  -0.000  -0.000  -4.352   0.000   0.000   8.513
 -0.000  -0.000   8.513   0.000   0.000 -18.787  -0.000  -0.000
  0.000   0.000   0.000   8.502   0.000  -0.000 -18.776  -0.000
 -0.000  -0.001   0.000   0.000   8.513  -0.000  -0.000 -18.787
 total augmentation occupancy for first ion, spin component:           1
  8.358  -3.740   0.001   0.000   0.003   0.000   0.000   0.001
 -3.740   1.729  -0.002  -0.000  -0.003  -0.000   0.000  -0.000
  0.001  -0.002   1.840  -0.000  -0.001   0.174   0.000   0.000
  0.000  -0.000  -0.000   1.223  -0.000   0.000   0.078   0.000
  0.003  -0.003  -0.001  -0.000   1.839   0.000   0.000   0.174
  0.000  -0.000   0.174   0.000   0.000   0.018   0.000   0.000
  0.000   0.000   0.000   0.078   0.000   0.000   0.005   0.000
  0.001  -0.000   0.000   0.000   0.174   0.000   0.000   0.018


------------------------ aborting loop because EDIFF is reached ----------------------------------------


    CHARGE:  cpu time    0.4047: real time    0.4052
    FORLOC:  cpu time    0.0276: real time    0.0276
    FORNL :  cpu time    1.9560: real time    1.9571
    STRESS:  cpu time    3.3025: real time    3.3039
    FORCOR:  cpu time    0.1213: real time    0.1214
    FORHAR:  cpu time    0.0489: real time    0.0489
    MIXING:  cpu time    0.0035: real time    0.0035
    OFIELD:  cpu time    0.0001: real time    0.0001

  FORCE on cell =-STRESS in cart. coord.  units (eV):
  Direction    XX          YY          ZZ          XY          YZ          ZX
  --------------------------------------------------------------------------------------
  Alpha Z    82.54348    82.54348    82.54348
  Ewald   41236.42496 41232.63629-47952.45553     1.13613     0.06067     0.03504
  Hartree 40516.93575 40516.43963-39998.56559     0.17603     0.05634     0.03314
  E(xc)    -777.14945  -777.16184  -804.23530     0.00328    -0.00001     0.00003
  Local  -83990.63106-83987.09046 85337.34492    -1.08522    -0.11690    -0.06803
  n-local  -203.91903  -203.94861  -194.69239     0.01231    -0.00060     0.00009
  augment   -12.38318   -12.37812   -14.04732    -0.00303     0.00018    -0.00003
  Kinetic  3163.83528  3164.41337  3596.27768    -0.16466     0.00093     0.00117
  Fock        0.00000     0.00000     0.00000     0.00000     0.00000     0.00000
  -------------------------------------------------------------------------------------
  Total      15.65674    15.45373    52.16994     0.07483     0.00061     0.00140
  in kB       9.57285     9.44872    31.89775     0.04575     0.00037     0.00086
  external pressure =       16.97 kB  Pullay stress =        0.00 kB


 VOLUME and BASIS-vectors are now :
 -----------------------------------------------------------------------------
  energy-cutoff  :      400.00
  volume of cell :     2620.42
      direct lattice vectors                 reciprocal lattice vectors
    12.300000191  0.000000000  0.000000000     0.081300812 -0.046939053  0.000000000
     6.150000804 10.652112223  0.000000000     0.000000000  0.093878095  0.000000000
     0.000000000  0.000000000 20.000000000     0.000000000  0.000000000  0.050000000

  length of vectors
    12.300000191 12.300000191 20.000000000     0.093878095  0.093878095  0.050000000


 FORCES acting on ions
    electron-ion (+dipol)            ewald-force                    non-local-force                 convergence-correction
 -----------------------------------------------------------------------------------------------
   -.151E+01 -.846E+00 0.279E+01   0.137E+01 0.765E+00 -.278E+01   0.882E-01 0.501E-01 -.173E-03   -.458E-03 0.118E-02 0.706E-03
   0.131E+01 -.754E+00 0.279E+01   -.119E+01 0.650E+00 -.278E+01   -.554E-01 0.539E-01 -.413E-03   0.157E-02 0.115E-02 0.133E-04
   0.490E+01 0.845E+01 0.382E+01   -.513E+01 -.882E+01 -.378E+01   -.261E+00 -.175E+00 -.718E-01   0.219E-02 0.675E-02 0.200E-03
   -.129E+00 0.130E+02 0.480E+01   0.158E+00 -.132E+02 -.494E+01   -.491E-02 0.140E-01 0.112E+00   -.128E-02 0.443E-02 0.494E-04
   -.372E+01 0.643E+01 0.381E+01   0.377E+01 -.650E+01 -.377E+01   0.113E+00 0.778E-01 -.714E-01   -.183E-02 0.323E-02 0.462E-03
   0.104E-01 0.173E+01 0.279E+01   -.104E-01 -.157E+01 -.278E+01   -.207E-02 -.100E+00 -.236E-03   0.103E-02 -.274E-03 0.399E-03
   0.118E+02 0.664E+01 0.489E+01   -.115E+02 -.647E+01 -.494E+01   0.961E-01 0.916E-01 0.524E-01   0.178E-02 -.233E-03 -.843E-04
   0.207E+02 0.360E+02 0.186E+02   -.213E+02 -.368E+02 -.190E+02   0.647E+00 0.678E+00 0.545E+00   0.141E-02 0.223E-02 0.106E-02
   -.209E+02 0.362E+02 0.186E+02   0.215E+02 -.371E+02 -.190E+02   -.637E+00 0.652E+00 0.546E+00   -.443E-02 0.331E-02 0.211E-03
   -.117E+02 0.673E+01 0.489E+01   0.114E+02 -.654E+01 -.494E+01   -.108E+00 0.621E-01 0.523E-01   -.202E-02 0.649E-03 -.245E-04
   0.743E+01 -.271E-01 0.381E+01   -.751E+01 0.159E-01 -.377E+01   0.832E-02 -.134E+00 -.717E-01   0.266E-02 -.538E-03 0.357E-03
   0.418E+02 -.957E-01 0.186E+02   -.429E+02 0.579E-01 -.190E+02   0.885E+00 0.227E+00 0.546E+00   0.382E-02 0.144E-02 -.298E-03
   -.236E-01 -.460E-01 0.291E+03   0.258E-01 0.446E-01 -.346E+03   0.175E-02 0.189E-02 0.713E+01   -.232E-02 -.202E-02 0.721E-02
   -.418E+02 -.642E-01 0.186E+02   0.429E+02 0.244E-01 -.190E+02   -.885E+00 0.226E+00 0.545E+00   -.429E-02 -.977E-03 -.511E-03
   -.740E+01 -.192E-01 0.381E+01   0.748E+01 0.128E-01 -.377E+01   -.106E-01 -.138E+00 -.716E-01   -.131E-02 0.229E-03 0.539E-03
   0.111E+02 -.644E+01 0.480E+01   -.113E+02 0.656E+01 -.494E+01   0.107E-01 -.536E-02 0.111E+00   0.339E-02 -.238E-02 -.389E-03
   0.209E+02 -.362E+02 0.186E+02   -.214E+02 0.371E+02 -.190E+02   0.248E+00 -.878E+00 0.546E+00   0.691E-03 -.457E-02 0.109E-03
   -.210E+02 -.363E+02 0.186E+02   0.214E+02 0.372E+02 -.190E+02   -.246E+00 -.878E+00 0.546E+00   -.238E-02 -.957E-03 0.151E-03
   -.111E+02 -.649E+01 0.480E+01   0.113E+02 0.660E+01 -.494E+01   -.121E-01 -.632E-02 0.111E+00   -.325E-02 -.138E-02 -.761E-04
   0.189E-01 -.150E+01 0.282E+01   -.237E-01 0.157E+01 -.278E+01   0.163E-03 -.856E-01 -.151E-01   0.932E-03 -.244E-02 0.602E-03
   0.370E+01 -.641E+01 0.381E+01   -.373E+01 0.649E+01 -.377E+01   0.124E+00 0.611E-01 -.714E-01   0.123E-02 -.308E-02 0.494E-03
   -.523E-01 -.135E+02 0.489E+01   0.552E-01 0.131E+02 -.494E+01   0.455E-03 -.124E+00 0.524E-01   0.905E-04 -.280E-02 0.131E-03
   -.386E+01 -.667E+01 0.381E+01   0.390E+01 0.676E+01 -.377E+01   -.108E+00 0.805E-01 -.714E-01   -.216E-02 -.140E-02 0.596E-04
   -.113E+01 0.681E+00 0.281E+01   0.116E+01 -.704E+00 -.278E+01   -.710E-01 0.396E-01 -.141E-01   -.538E-03 0.196E-02 0.475E-03
   0.129E+01 0.759E+00 0.282E+01   -.136E+01 -.796E+00 -.278E+01   0.741E-01 0.435E-01 -.149E-01   0.154E-02 0.117E-02 0.704E-03
   -.300E-01 0.441E-01 0.250E+01   0.252E-01 -.395E-01 -.250E+01   0.929E-02 -.307E-02 -.101E-01   0.121E-02 0.620E-03 0.318E-03
   0.571E+01 0.478E+01 0.341E+01   -.553E+01 -.499E+01 -.338E+01   -.277E-01 0.774E-01 -.249E-01   0.181E-02 0.356E-02 -.110E-03
   0.482E+01 0.169E+02 0.687E+01   -.439E+01 -.167E+02 -.650E+01   -.584E-01 0.213E+00 -.119E+00   -.306E-03 0.220E-02 0.405E-03
   -.614E+01 0.172E+02 0.688E+01   0.588E+01 -.171E+02 -.650E+01   0.603E-01 0.159E+00 -.122E+00   -.191E-02 0.381E-02 0.286E-03
   -.533E+01 0.408E+01 0.341E+01   0.516E+01 -.430E+01 -.338E+01   0.719E-01 0.289E-02 -.239E-01   -.132E-02 0.224E-02 0.474E-03
   0.623E+01 0.256E+01 0.341E+01   -.634E+01 -.230E+01 -.338E+01   -.408E-01 -.566E-01 -.239E-01   0.403E-02 0.732E-04 0.255E-03
   0.284E+02 0.162E+02 0.126E+02   -.286E+02 -.163E+02 -.131E+02   -.154E+00 -.948E-01 0.145E+00   0.242E-02 -.525E-03 0.229E-03
   -.777E-01 0.877E+02 0.586E+02   0.664E-01 -.921E+02 -.663E+02   0.402E-02 -.637E+00 0.330E+01   0.172E-02 0.423E-02 0.133E-02
   -.283E+02 0.163E+02 0.126E+02   0.286E+02 -.165E+02 -.131E+02   0.158E+00 -.923E-01 0.145E+00   -.380E-02 0.100E-02 -.152E-04
   -.618E+01 0.256E+01 0.341E+01   0.629E+01 -.230E+01 -.338E+01   0.327E-01 -.643E-01 -.239E-01   -.207E-02 0.820E-04 0.491E-03
   0.179E+02 -.334E+01 0.688E+01   -.177E+02 0.352E+01 -.650E+01   0.107E+00 -.138E+00 -.122E+00   0.279E-02 -.148E-02 -.206E-03
   0.760E+02 -.439E+02 0.586E+02   -.799E+02 0.461E+02 -.663E+02   -.553E+00 0.320E+00 0.331E+01   0.435E-02 -.163E-02 0.271E-02
   -.760E+02 -.439E+02 0.586E+02   0.799E+02 0.461E+02 -.663E+02   0.554E+00 0.322E+00 0.331E+01   -.394E-02 -.533E-02 0.430E-03
   -.179E+02 -.334E+01 0.688E+01   0.177E+02 0.352E+01 -.650E+01   -.107E+00 -.139E+00 -.122E+00   -.198E-02 -.142E-02 -.325E-04
   0.165E-01 -.621E+00 0.293E+01   -.154E-01 0.859E+00 -.290E+01   -.112E-02 -.154E+00 -.520E-01   0.875E-03 -.242E-02 0.345E-03
   0.118E+02 -.138E+02 0.688E+01   -.119E+02 0.136E+02 -.650E+01   0.172E+00 -.225E-01 -.121E+00   0.351E-02 -.294E-02 0.327E-03
   -.317E-01 -.327E+02 0.126E+02   0.306E-01 0.330E+02 -.131E+02   0.738E-03 0.183E+00 0.146E+00   -.141E-02 -.295E-02 -.103E-03
   -.118E+02 -.139E+02 0.688E+01   0.119E+02 0.137E+02 -.650E+01   -.171E+00 -.192E-01 -.121E+00   -.195E-02 -.182E-02 0.134E-03
   -.380E+01 -.227E+01 0.282E+01   0.374E+01 0.223E+01 -.286E+01   -.180E-01 -.162E-01 0.129E-01   -.225E-02 -.162E-02 0.582E-03
   0.386E+01 -.222E+01 0.282E+01   -.380E+01 0.219E+01 -.286E+01   0.194E-01 -.105E-01 0.130E-01   0.302E-02 -.224E-02 0.283E-03
   0.841E+00 -.663E+01 0.341E+01   -.112E+01 0.660E+01 -.338E+01   0.385E-01 0.610E-01 -.239E-01   0.106E-02 -.333E-02 0.469E-03
   -.106E+01 -.668E+01 0.341E+01   0.133E+01 0.665E+01 -.338E+01   -.435E-01 0.616E-01 -.240E-01   -.811E-03 -.138E-02 0.938E-04
   -.125E+00 -.891E+00 0.294E+01   0.340E+00 0.966E+00 -.291E+01   -.891E-01 0.104E+00 -.530E-01   -.856E-03 0.638E-03 0.178E-03
   0.538E-01 0.452E+01 0.282E+01   -.470E-01 -.445E+01 -.286E+01   0.323E-02 0.289E-01 0.127E-01   -.534E-03 0.463E-02 0.390E-03
   0.514E+00 0.316E+00 0.293E+01   -.721E+00 -.434E+00 -.290E+01   0.133E+00 0.779E-01 -.522E-01   0.117E-02 0.167E-03 0.545E-03
   -.218E-01 -.712E-01 -.722E+03   0.349E-01 0.604E-01 0.846E+03   -.463E-02 0.133E-01 -.638E+02   -.698E-02 -.195E-02 -.173E-01
 -----------------------------------------------------------------------------------------------
   0.144E-01 -.830E-02 0.440E+02   0.924E-13 0.348E-13 -.341E-12   -.732E-02 0.123E-01 -.440E+02   -.607E-02 -.310E-02 0.509E-02
 
 
 POSITION                                       TOTAL-FORCE (eV/Angst)
 -----------------------------------------------------------------------------------
      0.00000      0.00000      8.35995        -0.047095     -0.029434      0.009380
      2.46000      0.00000      8.35995         0.067334     -0.048313      0.009313
      4.92500      0.00866      8.35995        -0.483880     -0.531255     -0.025991
      7.38000      0.00000      8.35995         0.023490     -0.229862     -0.027096
      9.84000      0.00000      8.35995         0.160487      0.011828     -0.026264
      1.23000      2.13042      8.35995        -0.000983      0.057080      0.009415
      3.69000      2.13042      8.35995         0.399534      0.254621     -0.000163
      6.15000      2.13042      8.35995         0.114175     -0.161215      0.164633
      8.61000      2.13042      8.35995        -0.094544     -0.201845      0.165453
     11.07000      2.13042      8.35995        -0.429643      0.248135     -0.000021
      2.46000      4.26084      8.35995        -0.070529     -0.146098     -0.026216
      4.92000      4.26084      8.35995        -0.132890      0.190590      0.165465
      7.38000      4.26084      8.35995         0.001610     -0.001576    -48.161601
      9.84000      4.26084      8.35995         0.132211      0.185270      0.165132
     12.30000      4.26084      8.35995         0.066756     -0.143750     -0.026178
      3.69000      6.39127      8.35995        -0.180504      0.106558     -0.027021
      6.15000      6.39127      8.35995        -0.223617      0.022937      0.164935
      8.61000      6.39127      8.35995         0.225418      0.020258      0.165070
     11.07000      6.39127      8.35995         0.180362      0.108745     -0.026977
     13.53000      6.39127      8.35995        -0.003679     -0.012068      0.017822
      4.92000      8.52169      8.35995         0.092883      0.130794     -0.025871
      7.38000      8.52169      8.35995         0.003369     -0.491563      0.000037
      9.84000      8.52169      8.35995        -0.067794      0.167505     -0.025844
     12.30000      8.52169      8.35995        -0.044825      0.018640      0.017806
     14.76000      8.52169      8.35995         0.011440      0.007758      0.017856
      1.23000      0.71014      8.36012         0.005730      0.002195     -0.006168
      3.69000      0.71014      8.36012         0.151406     -0.125317      0.010222
      6.15000      0.71014      8.36012         0.372479      0.410657      0.257537
      8.61000      0.71014      8.36012        -0.201403      0.247107      0.257109
     11.07000      0.71014      8.36012        -0.097168     -0.217240      0.010123
      2.46000      2.84056      8.36012        -0.138964      0.199824      0.010226
      4.92000      2.84056      8.36012        -0.430482     -0.263055     -0.355197
      7.38000      2.84056      8.36012        -0.005594     -5.074424     -4.349366
      9.84000      2.84056      8.36012         0.441728     -0.255580     -0.354948
     12.30000      2.84056      8.36012         0.140578      0.191032      0.010098
      3.69000      4.97099      8.36012         0.318778      0.040504      0.257356
      6.15000      4.97099      8.36012        -4.395887      2.535922     -4.349247
      8.61000      4.97099      8.36012         4.394644      2.539661     -4.347824
     11.07000      4.97099      8.36012        -0.315111      0.039162      0.257028
     13.53000      4.97099      8.36012         0.000840      0.081721     -0.022232
      4.92000      7.10141      8.36012         0.118904     -0.293217      0.257091
      7.38000      7.10141      8.36012        -0.001768      0.507531     -0.355711
      9.84000      7.10141      8.36012        -0.114062     -0.297326      0.256956
     12.30000      7.10141      8.36012        -0.080620     -0.058237     -0.026141
     14.76000      7.10141      8.36012         0.084240     -0.047893     -0.026426
      6.15000      9.23183      8.36012        -0.238194      0.025254      0.010069
      8.61000      9.23183      8.36012         0.226084      0.028455      0.010299
     11.07000      9.23183      8.36012         0.125396      0.179636     -0.022359
     13.53000      9.23183      8.36012         0.009506      0.109280     -0.026641
     15.99000      9.23183      8.36012        -0.071633     -0.039950     -0.022092
      7.38000      4.26084      9.36012         0.001491      0.000561     59.987159
 -----------------------------------------------------------------------------------
    total drift:                                0.001016      0.000900     -0.000749


--------------------------------------------------------------------------------------------------------



  FREE ENERGIE OF THE ION-ELECTRON SYSTEM (eV)
  ---------------------------------------------------
  free  energy   TOTEN  =      -454.33670622 eV

  energy  without entropy=     -454.33659177  energy(sigma->0) =     -454.33664900
 


--------------------------------------------------------------------------------------------------------


    POTLOK:  cpu time    0.1781: real time    0.1787


--------------------------------------------------------------------------------------------------------


 stress matrix after NEB project (eV)
     15.65674      0.07483      0.00140
      0.07483     15.45373      0.00061
      0.00140      0.00061     52.16994
  FORCES: max atom, RMS    59.987159   10.897717
  FORCE total and by dimension   77.825265   59.987159
  Stress total and by dimension   56.618598   52.169945
     LOOP+:  cpu time   42.4749: real time   42.5244
    4ORBIT:  cpu time    0.0000: real time    0.0000

 total amount of memory used by VASP MPI-rank0    90113. kBytes
=======================================================================

   base      :      30000. kBytes
   nonl-proj :       8674. kBytes
   fftplans  :      26248. kBytes
   grid      :      14579. kBytes
   one-center:         21. kBytes
   wavefun   :      10591. kBytes
 
  
  
 General timing and accounting informations for this job:
 ========================================================
  
                  Total CPU time used (sec):       50.088
                            User time (sec):       46.693
                          System time (sec):        3.396
                         Elapsed time (sec):       50.249
  
                   Maximum memory used (kb):      371608.
                   Average memory used (kb):           0.
  
                          Minor page faults:       103782
                          Major page faults:            0
                 Voluntary context switches:         1308
