  51  51   0   0
  0.5138078E+02  0.1230000E-08  0.1230000E-08  0.2000000E-08  0.5000000E-15
  1.000000000000000E-004
  CAR 
                                         
      5.95916521    -33.41948130  301     -3.01632720      1.00000000
    -33.419  0.0000E+00  0.0000E+00
    -33.288  0.0000E+00  0.0000E+00
    -33.157  0.0000E+00  0.0000E+00
    -33.026  0.0000E+00  0.0000E+00
    -32.894  0.0000E+00  0.0000E+00
    -32.763  0.0000E+00  0.0000E+00
    -32.632  0.0000E+00  0.0000E+00
    -32.501  0.0000E+00  0.0000E+00
    -32.369  0.0000E+00  0.0000E+00
    -32.238  0.0000E+00  0.0000E+00
    -32.107  0.0000E+00  0.0000E+00
    -31.976  0.0000E+00  0.0000E+00
    -31.844  0.9356E-08  0.1228E-08
    -31.713  0.1378E+00  0.1808E-01
    -31.582  0.1375E+02  0.1823E+01
    -31.451  0.1352E+01  0.2000E+01
    -31.319  0.3170E-05  0.2000E+01
    -31.188  0.0000E+00  0.2000E+01
    -31.057  0.0000E+00  0.2000E+01
    -30.926  0.0000E+00  0.2000E+01
    -30.794  0.0000E+00  0.2000E+01
    -30.663  0.0000E+00  0.2000E+01
    -30.532  0.0000E+00  0.2000E+01
    -30.400  0.0000E+00  0.2000E+01
    -30.269  0.0000E+00  0.2000E+01
    -30.138  0.0000E+00  0.2000E+01
    -30.007  0.0000E+00  0.2000E+01
    -29.875  0.0000E+00  0.2000E+01
    -29.744  0.0000E+00  0.2000E+01
    -29.613  0.0000E+00  0.2000E+01
    -29.482  0.0000E+00  0.2000E+01
    -29.350  0.0000E+00  0.2000E+01
    -29.219  0.0000E+00  0.2000E+01
    -29.088  0.0000E+00  0.2000E+01
    -28.957  0.0000E+00  0.2000E+01
    -28.825  0.0000E+00  0.2000E+01
    -28.694  0.0000E+00  0.2000E+01
    -28.563  0.0000E+00  0.2000E+01
    -28.432  0.0000E+00  0.2000E+01
    -28.300  0.0000E+00  0.2000E+01
    -28.169  0.0000E+00  0.2000E+01
    -28.038  0.0000E+00  0.2000E+01
    -27.906  0.0000E+00  0.2000E+01
    -27.775  0.0000E+00  0.2000E+01
    -27.644  0.0000E+00  0.2000E+01
    -27.513  0.0000E+00  0.2000E+01
    -27.381  0.0000E+00  0.2000E+01
    -27.250  0.0000E+00  0.2000E+01
    -27.119  0.0000E+00  0.2000E+01
    -26.988  0.0000E+00  0.2000E+01
    -26.856  0.0000E+00  0.2000E+01
    -26.725  0.0000E+00  0.2000E+01
    -26.594  0.0000E+00  0.2000E+01
    -26.463  0.0000E+00  0.2000E+01
    -26.331  0.0000E+00  0.2000E+01
    -26.200  0.0000E+00  0.2000E+01
    -26.069  0.0000E+00  0.2000E+01
    -25.938  0.0000E+00  0.2000E+01
    -25.806  0.0000E+00  0.2000E+01
    -25.675  0.0000E+00  0.2000E+01
    -25.544  0.0000E+00  0.2000E+01
    -25.412  0.0000E+00  0.2000E+01
    -25.281  0.0000E+00  0.2000E+01
    -25.150  0.0000E+00  0.2000E+01
    -25.019  0.0000E+00  0.2000E+01
    -24.887  0.0000E+00  0.2000E+01
    -24.756  0.0000E+00  0.2000E+01
    -24.625  0.0000E+00  0.2000E+01
    -24.494  0.0000E+00  0.2000E+01
    -24.362  0.0000E+00  0.2000E+01
    -24.231  0.0000E+00  0.2000E+01
    -24.100  0.0000E+00  0.2000E+01
    -23.969  0.0000E+00  0.2000E+01
    -23.837  0.0000E+00  0.2000E+01
    -23.706  0.0000E+00  0.2000E+01
    -23.575  0.0000E+00  0.2000E+01
    -23.444  0.0000E+00  0.2000E+01
    -23.312  0.0000E+00  0.2000E+01
    -23.181  0.0000E+00  0.2000E+01
    -23.050  0.0000E+00  0.2000E+01
    -22.919  0.0000E+00  0.2000E+01
    -22.787  0.0000E+00  0.2000E+01
    -22.656  0.0000E+00  0.2000E+01
    -22.525  0.5327E-12  0.2000E+01
    -22.393  0.4224E-03  0.2000E+01
    -22.262  0.1189E+01  0.2156E+01
    -22.131  0.1039E+02  0.3520E+01
    -22.000  0.5581E+01  0.4253E+01
    -21.868  0.6651E+01  0.5126E+01
    -21.737  0.8384E+01  0.6226E+01
    -21.606  0.9519E+01  0.7476E+01
    -21.475  0.6113E+01  0.8278E+01
    -21.343  0.1271E+02  0.9947E+01
    -21.212  0.9492E+00  0.1007E+02
    -21.081  0.7057E+01  0.1100E+02
    -20.950  0.9938E+01  0.1230E+02
    -20.818  0.1412E+02  0.1416E+02
    -20.687  0.9288E+01  0.1537E+02
    -20.556  0.1380E+01  0.1556E+02
    -20.425  0.5663E+01  0.1630E+02
    -20.293  0.1088E+02  0.1773E+02
    -20.162  0.9591E+01  0.1899E+02
    -20.031  0.1111E+02  0.2044E+02
    -19.899  0.7338E+00  0.2054E+02
    -19.768  0.9779E+01  0.2182E+02
    -19.637  0.1276E+02  0.2350E+02
    -19.506  0.8064E+01  0.2456E+02
    -19.374  0.1686E+01  0.2478E+02
    -19.243  0.1423E+02  0.2665E+02
    -19.112  0.7573E+01  0.2764E+02
    -18.981  0.9406E+01  0.2887E+02
    -18.849  0.3858E+01  0.2938E+02
    -18.718  0.3348E+01  0.2982E+02
    -18.587  0.1349E+02  0.3159E+02
    -18.456  0.9660E+01  0.3286E+02
    -18.324  0.1308E+02  0.3458E+02
    -18.193  0.2559E+01  0.3491E+02
    -18.062  0.1400E+02  0.3675E+02
    -17.931  0.7887E+01  0.3778E+02
    -17.799  0.4923E+01  0.3843E+02
    -17.668  0.2004E+01  0.3869E+02
    -17.537  0.1369E+02  0.4049E+02
    -17.405  0.9763E+01  0.4177E+02
    -17.274  0.1412E+02  0.4363E+02
    -17.143  0.1243E+02  0.4526E+02
    -17.012  0.5460E+01  0.4597E+02
    -16.880  0.3784E+01  0.4647E+02
    -16.749  0.8271E+01  0.4756E+02
    -16.618  0.8416E+01  0.4866E+02
    -16.487  0.6469E+01  0.4951E+02
    -16.355  0.7086E+01  0.5044E+02
    -16.224  0.3890E+01  0.5095E+02
    -16.093  0.9743E+01  0.5223E+02
    -15.962  0.1027E+02  0.5358E+02
    -15.830  0.1182E+02  0.5513E+02
    -15.699  0.6689E+01  0.5601E+02
    -15.568  0.3261E+01  0.5644E+02
    -15.437  0.4907E+01  0.5708E+02
    -15.305  0.4512E+01  0.5767E+02
    -15.174  0.1275E+02  0.5935E+02
    -15.043  0.1833E+02  0.6175E+02
    -14.912  0.5447E+01  0.6247E+02
    -14.780  0.1348E+02  0.6424E+02
    -14.649  0.7043E+01  0.6516E+02
    -14.518  0.6561E+01  0.6602E+02
    -14.386  0.1816E+02  0.6841E+02
    -14.255  0.3008E+00  0.6845E+02
    -14.124  0.3808E+01  0.6895E+02
    -13.993  0.2670E+01  0.6930E+02
    -13.861  0.1435E+02  0.7118E+02
    -13.730  0.2143E+02  0.7399E+02
    -13.599  0.8507E+01  0.7511E+02
    -13.468  0.2640E+01  0.7545E+02
    -13.336  0.7699E+00  0.7556E+02
    -13.205  0.4530E+01  0.7615E+02
    -13.074  0.1269E+02  0.7782E+02
    -12.943  0.1460E+02  0.7973E+02
    -12.811  0.1554E+02  0.8177E+02
    -12.680  0.7709E-01  0.8178E+02
    -12.549  0.1364E+02  0.8357E+02
    -12.418  0.1204E+02  0.8515E+02
    -12.286  0.8760E+01  0.8630E+02
    -12.155  0.2790E+01  0.8667E+02
    -12.024  0.8538E+01  0.8779E+02
    -11.892  0.6757E+01  0.8868E+02
    -11.761  0.8156E+01  0.8975E+02
    -11.630  0.1986E+02  0.9235E+02
    -11.499  0.1352E+02  0.9413E+02
    -11.367  0.1089E+02  0.9556E+02
    -11.236  0.9644E+01  0.9682E+02
    -11.105  0.7121E+01  0.9776E+02
    -10.974  0.4166E+01  0.9831E+02
    -10.842  0.1940E+02  0.1009E+03
    -10.711  0.1041E+02  0.1022E+03
    -10.580  0.6633E+01  0.1031E+03
    -10.449  0.1724E+02  0.1054E+03
    -10.317  0.4914E+01  0.1060E+03
    -10.186  0.3179E+02  0.1102E+03
    -10.055  0.2181E+02  0.1130E+03
     -9.924  0.1357E+02  0.1148E+03
     -9.792  0.2079E+02  0.1175E+03
     -9.661  0.1553E+02  0.1196E+03
     -9.530  0.3224E+02  0.1238E+03
     -9.399  0.1597E+02  0.1259E+03
     -9.267  0.3000E+02  0.1298E+03
     -9.136  0.2220E+02  0.1328E+03
     -9.005  0.2866E+02  0.1365E+03
     -8.873  0.2268E+02  0.1395E+03
     -8.742  0.1124E+02  0.1410E+03
     -8.611  0.2863E+02  0.1447E+03
     -8.480  0.1456E+02  0.1466E+03
     -8.348  0.1609E+02  0.1488E+03
     -8.217  0.1413E+02  0.1506E+03
     -8.086  0.2236E+02  0.1535E+03
     -7.955  0.2513E+02  0.1568E+03
     -7.823  0.1650E+02  0.1590E+03
     -7.692  0.1113E+02  0.1605E+03
     -7.561  0.9481E+01  0.1617E+03
     -7.430  0.8518E+00  0.1618E+03
     -7.298  0.2700E+02  0.1654E+03
     -7.167  0.2957E+02  0.1693E+03
     -7.036  0.9055E+01  0.1704E+03
     -6.905  0.9597E+01  0.1717E+03
     -6.773  0.1489E+02  0.1737E+03
     -6.642  0.1536E+02  0.1757E+03
     -6.511  0.1461E+02  0.1776E+03
     -6.379  0.6635E+01  0.1785E+03
     -6.248  0.1428E+02  0.1803E+03
     -6.117  0.1510E+02  0.1823E+03
     -5.986  0.1172E+02  0.1839E+03
     -5.854  0.2203E+02  0.1867E+03
     -5.723  0.8511E+01  0.1879E+03
     -5.592  0.1229E+02  0.1895E+03
     -5.461  0.2842E+01  0.1899E+03
     -5.329  0.8897E+01  0.1910E+03
     -5.198  0.6677E+01  0.1919E+03
     -5.067  0.1378E+02  0.1937E+03
     -4.936  0.2149E+02  0.1965E+03
     -4.804  0.1027E+02  0.1979E+03
     -4.673  0.2650E+01  0.1982E+03
     -4.542  0.6480E-02  0.1982E+03
     -4.411  0.5206E-03  0.1982E+03
     -4.279  0.5964E+01  0.1990E+03
     -4.148  0.1712E+02  0.2013E+03
     -4.017  0.2312E+01  0.2016E+03
     -3.885  0.1381E-03  0.2016E+03
     -3.754  0.1274E+01  0.2017E+03
     -3.623  0.2110E+01  0.2020E+03
     -3.492  0.4657E+00  0.2021E+03
     -3.360  0.5922E+01  0.2028E+03
     -3.229  0.1174E+02  0.2044E+03
     -3.098  0.1117E+02  0.2058E+03
     -2.967  0.1278E+01  0.2060E+03
     -2.835  0.3154E+01  0.2064E+03
     -2.704  0.8562E+01  0.2076E+03
     -2.573  0.3743E-01  0.2076E+03
     -2.442  0.1990E+00  0.2076E+03
     -2.310  0.3153E+01  0.2080E+03
     -2.179  0.3025E+01  0.2084E+03
     -2.048  0.3947E+00  0.2084E+03
     -1.917  0.1582E-05  0.2084E+03
     -1.785  0.1850E-06  0.2084E+03
     -1.654  0.3692E+00  0.2085E+03
     -1.523  0.9706E+01  0.2098E+03
     -1.392  0.1324E+02  0.2115E+03
     -1.260  0.2076E+01  0.2118E+03
     -1.129  0.1456E-03  0.2118E+03
     -0.998  0.1435E+01  0.2120E+03
     -0.866  0.1229E+02  0.2136E+03
     -0.735  0.2232E+02  0.2165E+03
     -0.604  0.1791E+02  0.2189E+03
     -0.473  0.5146E+01  0.2195E+03
     -0.341  0.1986E+00  0.2196E+03
     -0.210  0.4906E+01  0.2202E+03
     -0.079  0.1123E+02  0.2217E+03
      0.052  0.1034E+02  0.2230E+03
      0.184  0.7775E+00  0.2231E+03
      0.315  0.1676E+02  0.2253E+03
      0.446  0.7237E+01  0.2263E+03
      0.577  0.3122E+01  0.2267E+03
      0.709  0.1154E+02  0.2282E+03
      0.840  0.1642E+02  0.2304E+03
      0.971  0.6204E+01  0.2312E+03
      1.102  0.1132E+02  0.2327E+03
      1.234  0.1475E+02  0.2346E+03
      1.365  0.8340E+01  0.2357E+03
      1.496  0.1479E+02  0.2376E+03
      1.628  0.2320E+02  0.2407E+03
      1.759  0.1493E+02  0.2426E+03
      1.890  0.2791E+02  0.2463E+03
      2.021  0.8727E+01  0.2475E+03
      2.153  0.1640E+02  0.2496E+03
      2.284  0.2567E+02  0.2530E+03
      2.415  0.2822E+02  0.2567E+03
      2.546  0.8531E+01  0.2578E+03
      2.678  0.6319E+01  0.2586E+03
      2.809  0.8655E+01  0.2598E+03
      2.940  0.5392E+01  0.2605E+03
      3.071  0.9153E+01  0.2617E+03
      3.203  0.2405E+01  0.2620E+03
      3.334  0.5104E+01  0.2627E+03
      3.465  0.5004E-01  0.2627E+03
      3.596  0.2866E+01  0.2630E+03
      3.728  0.3903E+01  0.2636E+03
      3.859  0.2166E-02  0.2636E+03
      3.990  0.6998E-06  0.2636E+03
      4.121  0.2997E+00  0.2636E+03
      4.253  0.3056E+01  0.2640E+03
      4.384  0.3072E-01  0.2640E+03
      4.515  0.2096E-08  0.2640E+03
      4.647  0.0000E+00  0.2640E+03
      4.778  0.0000E+00  0.2640E+03
      4.909  0.0000E+00  0.2640E+03
      5.040  0.0000E+00  0.2640E+03
      5.172  0.0000E+00  0.2640E+03
      5.303  0.0000E+00  0.2640E+03
      5.434  0.0000E+00  0.2640E+03
      5.565  0.0000E+00  0.2640E+03
      5.697  0.0000E+00  0.2640E+03
      5.828  0.0000E+00  0.2640E+03
      5.959  0.0000E+00  0.2640E+03
