 vasp.5.4.4.18Apr17-6-g9f103f2a35 (build Aug 13 2022 23:40:43) complex          
  
 executed on             LinuxIFC date 2024.11.10  04:00:31
 running on   48 total cores
 distrk:  each k-point on   48 cores,    1 groups
 distr:  one band on NCORES_PER_BAND=   8 cores,    6 groups


--------------------------------------------------------------------------------------------------------


 INCAR:
 POTCAR:    PAW_PBE C 08Apr2002                   
 POTCAR:    PAW_PBE O 08Apr2002                   
 POTCAR:    PAW_PBE C 08Apr2002                   
   VRHFIN =C: s2p2                                                              
   LEXCH  = PE                                                                  
   EATOM  =   147.1560 eV,   10.8157 Ry                                         
                                                                                
   TITEL  = PAW_PBE C 08Apr2002                                                 
   LULTRA =        F    use ultrasoft PP ?                                      
   IUNSCR =        1    unscreen: 0-lin 1-nonlin 2-no                           
   RPACOR =    1.200    partial core radius                                     
   POMASS =   12.011; ZVAL   =    4.000    mass and valenz                      
   RCORE  =    1.500    outmost cutoff radius                                   
   RWIGS  =    1.630; RWIGS  =    0.863    wigner-seitz radius (au A)           
   ENMAX  =  400.000; ENMIN  =  300.000 eV                                      
   ICORE  =        2    local potential                                         
   LCOR   =        T    correct aug charges                                     
   LPAW   =        T    paw PP                                                  
   EAUG   =  644.873                                                            
   DEXC   =    0.000                                                            
   RMAX   =    1.529    core radius for proj-oper                               
   RAUG   =    1.300    factor for augmentation sphere                          
   RDEP   =    1.501    radius for radial grids                                 
   RDEPT  =    1.300    core radius for aug-charge                              
                                                                                
   Atomic configuration                                                         
    4 entries                                                                   
     n  l   j            E        occ.                                          
     1  0  0.50      -273.3789   2.0000                                         
     2  0  0.50       -13.7508   2.0000                                         
     2  1  0.50        -5.2854   2.0000                                         
     3  2  1.50        -5.4423   0.0000                                         
   Description                                                                  
     l       E           TYP  RCUT    TYP  RCUT                                 
     0    -13.7508458     23  1.200                                             
     0     -8.2022199     23  1.200                                             
     1     -5.2854383     23  1.500                                             
     1     34.0145650     23  1.500                                             
     2     -5.4423304      7  1.500                                             
  local pseudopotential read in
  partial core-charges read in
  partial kinetic energy density read in
  atomic valenz-charges read in
  non local Contribution for L=           0  read in
    real space projection operators read in
  non local Contribution for L=           0  read in
    real space projection operators read in
  non local Contribution for L=           1  read in
    real space projection operators read in
  non local Contribution for L=           1  read in
    real space projection operators read in
    PAW grid and wavefunctions read in
 
   number of l-projection  operators is LMAX  =           4
   number of lm-projection operators is LMMAX =           8
 
 POTCAR:    PAW_PBE O 08Apr2002                   
   VRHFIN =O: s2p4                                                              
   LEXCH  = PE                                                                  
   EATOM  =   432.3788 eV,   31.7789 Ry                                         
                                                                                
   TITEL  = PAW_PBE O 08Apr2002                                                 
   LULTRA =        F    use ultrasoft PP ?                                      
   IUNSCR =        1    unscreen: 0-lin 1-nonlin 2-no                           
   RPACOR =    1.200    partial core radius                                     
   POMASS =   16.000; ZVAL   =    6.000    mass and valenz                      
   RCORE  =    1.520    outmost cutoff radius                                   
   RWIGS  =    1.550; RWIGS  =    0.820    wigner-seitz radius (au A)           
   ENMAX  =  400.000; ENMIN  =  300.000 eV                                      
   ICORE  =        2    local potential                                         
   LCOR   =        T    correct aug charges                                     
   LPAW   =        T    paw PP                                                  
   EAUG   =  605.392                                                            
   DEXC   =    0.000                                                            
   RMAX   =    1.553    core radius for proj-oper                               
   RAUG   =    1.300    factor for augmentation sphere                          
   RDEP   =    1.550    radius for radial grids                                 
   RDEPT  =    1.329    core radius for aug-charge                              
                                                                                
   Atomic configuration                                                         
    4 entries                                                                   
     n  l   j            E        occ.                                          
     1  0  0.50      -514.6923   2.0000                                         
     2  0  0.50       -23.9615   2.0000                                         
     2  1  0.50        -9.0305   4.0000                                         
     3  2  1.50        -9.5241   0.0000                                         
   Description                                                                  
     l       E           TYP  RCUT    TYP  RCUT                                 
     0    -23.9615318     23  1.200                                             
     0     -9.5240782     23  1.200                                             
     1     -9.0304911     23  1.520                                             
     1      8.1634956     23  1.520                                             
     2     -9.5240782      7  1.500                                             
  local pseudopotential read in
  partial core-charges read in
  partial kinetic energy density read in
  kinetic energy density of atom read in
  atomic valenz-charges read in
  non local Contribution for L=           0  read in
    real space projection operators read in
  non local Contribution for L=           0  read in
    real space projection operators read in
  non local Contribution for L=           1  read in
    real space projection operators read in
  non local Contribution for L=           1  read in
    real space projection operators read in
    PAW grid and wavefunctions read in
 
   number of l-projection  operators is LMAX  =           4
   number of lm-projection operators is LMMAX =           8
 

 ----------------------------------------------------------------------------- 
|                                                                             |
|  ADVICE TO THIS USER RUNNING 'VASP/VAMP'   (HEAR YOUR MASTER'S VOICE ...):  |
|                                                                             |
|      You have a (more or less) 'large supercell' and for larger cells       |
|      it might be more efficient to use real space projection opertators     |
|      So try LREAL= Auto  in the INCAR   file.                               |
|      Mind:          For very  accurate calculation you might also keep the  |
|      reciprocal projection scheme          (i.e. LREAL=.FALSE.)             |
|                                                                             |
 ----------------------------------------------------------------------------- 

  PAW_PBE C 08Apr2002                   :
 energy of atom  1       EATOM= -147.1560
 kinetic energy error for atom=    0.0288 (will be added to EATOM!!)
  PAW_PBE O 08Apr2002                   :
 energy of atom  2       EATOM= -432.3788
 kinetic energy error for atom=    0.1156 (will be added to EATOM!!)
 
 
 POSCAR: generated by phonopy                    
  positions in direct lattice
  No initial velocities read in
 exchange correlation table for  LEXCH =        8
   RHO(1)=    0.500       N(1)  =     2000
   RHO(2)=  100.500       N(2)  =     4000

 VTST: version 3.2, (02/03/18)

 CHAIN: initializing optimizer
 
 OPT: Using VASP Dynamics algorithm
 CHAIN: Read ICHAIN            0
 
 POSCAR: generated by phonopy                    
  positions in direct lattice
  No initial velocities read in
 


--------------------------------------------------------------------------------------------------------


 ion  position               nearest neighbor table
   1  0.000  0.000  0.418-  26 1.42  30 1.42  46 1.42
   2  0.200  0.000  0.418-  27 1.42  26 1.42  47 1.42
   3  0.400  0.000  0.418-  28 1.42  27 1.42  48 1.42
   4  0.600  0.000  0.418-  29 1.42  28 1.42  49 1.42
   5  0.800  0.000  0.418-  30 1.42  29 1.42  50 1.42
   6  0.000  0.200  0.418-  31 1.42  35 1.42  26 1.42
   7  0.200  0.200  0.418-  32 1.42  31 1.42  27 1.42
   8  0.400  0.200  0.418-  33 1.42  32 1.42  28 1.42
   9  0.600  0.200  0.418-  34 1.42  33 1.42  29 1.42
  10  0.800  0.200  0.418-  35 1.42  34 1.42  30 1.42
  11  0.000  0.400  0.418-  36 1.42  40 1.42  31 1.42
  12  0.200  0.400  0.418-  37 1.42  36 1.42  32 1.42
  13  0.400  0.400  0.418-  51 1.01  37 1.42  33 1.42  38 1.42
  14  0.600  0.400  0.418-  39 1.42  38 1.42  34 1.42
  15  0.800  0.400  0.418-  40 1.42  39 1.42  35 1.42
  16  0.000  0.600  0.418-  41 1.42  45 1.42  36 1.42
  17  0.200  0.600  0.418-  42 1.42  41 1.42  37 1.42
  18  0.400  0.600  0.418-  43 1.42  42 1.42  38 1.42
  19  0.600  0.600  0.418-  44 1.42  43 1.42  39 1.42
  20  0.800  0.600  0.418-  45 1.42  44 1.42  40 1.42
  21  0.000  0.800  0.418-  46 1.42  50 1.42  41 1.42
  22  0.200  0.800  0.418-  47 1.42  46 1.42  42 1.42
  23  0.400  0.800  0.418-  48 1.42  47 1.42  43 1.42
  24  0.600  0.800  0.418-  49 1.42  48 1.42  44 1.42
  25  0.800  0.800  0.418-  50 1.42  49 1.42  45 1.42
  26  0.067  0.067  0.418-   1 1.42   2 1.42   6 1.42
  27  0.267  0.067  0.418-   2 1.42   3 1.42   7 1.42
  28  0.467  0.067  0.418-   3 1.42   4 1.42   8 1.42
  29  0.667  0.067  0.418-   4 1.42   5 1.42   9 1.42
  30  0.867  0.067  0.418-   5 1.42   1 1.42  10 1.42
  31  0.067  0.267  0.418-   6 1.42   7 1.42  11 1.42
  32  0.267  0.267  0.418-   7 1.42   8 1.42  12 1.42
  33  0.467  0.267  0.418-   8 1.42   9 1.42  13 1.42  51 1.74
  34  0.667  0.267  0.418-   9 1.42  10 1.42  14 1.42
  35  0.867  0.267  0.418-  10 1.42   6 1.42  15 1.42
  36  0.067  0.467  0.418-  11 1.42  12 1.42  16 1.42
  37  0.267  0.467  0.418-  13 1.42  12 1.42  17 1.42  51 1.74
  38  0.467  0.467  0.418-  14 1.42  18 1.42  13 1.42  51 1.74
  39  0.667  0.467  0.418-  14 1.42  15 1.42  19 1.42
  40  0.867  0.467  0.418-  15 1.42  11 1.42  20 1.42
  41  0.067  0.667  0.418-  16 1.42  17 1.42  21 1.42
  42  0.267  0.667  0.418-  17 1.42  18 1.42  22 1.42
  43  0.467  0.667  0.418-  18 1.42  19 1.42  23 1.42
  44  0.667  0.667  0.418-  19 1.42  20 1.42  24 1.42
  45  0.867  0.667  0.418-  20 1.42  16 1.42  25 1.42
  46  0.067  0.867  0.418-  21 1.42  22 1.42   1 1.42
  47  0.267  0.867  0.418-  22 1.42  23 1.42   2 1.42
  48  0.467  0.867  0.418-  23 1.42  24 1.42   3 1.42
  49  0.667  0.867  0.418-  24 1.42  25 1.42   4 1.42
  50  0.867  0.867  0.418-  25 1.42  21 1.42   5 1.42
  51  0.400  0.400  0.468-  13 1.01  38 1.74  37 1.74  33 1.74
 
  LATTYP: Found a hexagonal cell.
 ALAT       =    12.2999994816
 C/A-ratio  =     1.6260163287
  
  Lattice vectors:
  
 A1 = (   6.1499993860, -10.6521122225,   0.0000000000)
 A2 = ( -12.3000001905,   0.0000000000,   0.0000000000)
 A3 = (   0.0000000000,   0.0000000000, -20.0000000000)


Analysis of symmetry for initial positions (statically):
=====================================================================
 Subroutine PRICEL returns:
 Original cell was already a primitive cell.
 

 Routine SETGRP: Setting up the symmetry group for a 
 hexagonal supercell.


 Subroutine GETGRP returns: Found  1 space group operations
 (whereof  1 operations were pure point group operations)
 out of a pool of 24 trial point group operations.


The static configuration has the point symmetry C_1 .


Analysis of symmetry for dynamics (positions and initial velocities):
=====================================================================
 Subroutine PRICEL returns:
 Original cell was already a primitive cell.
 

 Routine SETGRP: Setting up the symmetry group for a 
 hexagonal supercell.


 Subroutine GETGRP returns: Found  1 space group operations
 (whereof  1 operations were pure point group operations)
 out of a pool of 24 trial point group operations.


The dynamic configuration has the point symmetry C_1 .


 Subroutine INISYM returns: Found  1 space group operations
 (whereof  1 operations are pure point group operations),
 and found     1 'primitive' translations

 
 
 KPOINTS: K-POINTS                                

Automatic generation of k-mesh.
Space group operators:
 irot       det(A)        alpha          n_x          n_y          n_z        tau_x        tau_y        tau_z
    1     1.000000     0.000000     1.000000     0.000000     0.000000     0.000000     0.000000     0.000000
 
 Subroutine IBZKPT returns following result:
 ===========================================
 
 Found      5 irreducible k-points:
 
 Following reciprocal coordinates:
            Coordinates               Weight
  0.000000  0.000000  0.000000      1.000000
  0.333333  0.000000  0.000000      2.000000
  0.000000  0.333333  0.000000      2.000000
  0.333333  0.333333  0.000000      2.000000
 -0.333333  0.333333  0.000000      2.000000
 
 Following cartesian coordinates:
            Coordinates               Weight
  0.000000  0.000000  0.000000      1.000000
  0.027100 -0.015646  0.000000      2.000000
  0.000000  0.031293  0.000000      2.000000
  0.027100  0.015646  0.000000      2.000000
 -0.027100  0.046939  0.000000      2.000000
 


--------------------------------------------------------------------------------------------------------




 Dimension of arrays:
   k-points           NKPTS =      5   k-points in BZ     NKDIM =      5   number of bands    NBANDS=    132
   number of dos      NEDOS =    301   number of ions     NIONS =     51
   non local maximal  LDIM  =      4   non local SUM 2l+1 LMDIM =      8
   total plane-waves  NPLWV = 896000
   max r-space proj   IRMAX =      1   max aug-charges    IRDMAX=  35685
   dimension x,y,z NGX =    80 NGY =   80 NGZ =  140
   dimension x,y,z NGXF=   160 NGYF=  160 NGZF=  280
   support grid    NGXF=   320 NGYF=  320 NGZF=  560
   ions per type =              50   1
   NGX,Y,Z   is equivalent  to a cutoff of  10.81, 10.81, 11.64 a.u.
   NGXF,Y,Z  is equivalent  to a cutoff of  21.63, 21.63, 23.27 a.u.

 SYSTEM =                                          
 POSCAR =  generated by phonopy                    

 Startparameter for this run:
   NWRITE =      2    write-flag & timer
   PREC   = accura    normal or accurate (medium, high low for compatibility)
   ISTART =      1    job   : 0-new  1-cont  2-samecut
   ICHARG =      1    charge: 1-file 2-atom 10-const
   ISPIN  =      1    spin polarized calculation?
   LNONCOLLINEAR =      F non collinear calculations
   LSORBIT =      F    spin-orbit coupling
   INIWAV =      1    electr: 0-lowe 1-rand  2-diag
   LASPH  =      F    aspherical Exc in radial PAW
   METAGGA=      F    non-selfconsistent MetaGGA calc.

 Electronic Relaxation 1
   ENCUT  =  400.0 eV  29.40 Ry    5.42 a.u.  20.06 20.06 32.61*2*pi/ulx,y,z
   ENINI  =  400.0     initial cutoff
   ENAUG  =  644.9 eV  augmentation charge cutoff
   NELM   =    300;   NELMIN=  2; NELMDL=  0     # of ELM steps 
   EDIFF  = 0.1E-04   stopping-criterion for ELM
   LREAL  =      F    real-space projection
   NLSPLINE    = F    spline interpolate recip. space projectors
   LCOMPAT=      F    compatible to vasp.4.4
   GGA_COMPAT  = T    GGA compatible to vasp.4.4-vasp.4.6
   LMAXPAW     = -100 max onsite density
   LMAXMIX     =    2 max onsite mixed and CHGCAR
   VOSKOWN=      0    Vosko Wilk Nusair interpolation
   ROPT   =    0.00000   0.00000
 Ionic relaxation
   EDIFFG = -.1E-02   stopping-criterion for IOM
   NSW    =      1    number of steps for IOM
   NBLOCK =      1;   KBLOCK =      1    inner block; outer block 
   IBRION =     -1    ionic relax: 0-MD 1-quasi-New 2-CG
   NFREE  =      0    steps in history (QN), initial steepest desc. (CG)
   ISIF   =      2    stress and relaxation
   IWAVPR =     10    prediction:  0-non 1-charg 2-wave 3-comb
   ISYM   =      2    0-nonsym 1-usesym 2-fastsym
   LCORR  =      T    Harris-Foulkes like correction to forces

   POTIM  = 0.5000    time-step for ionic-motion
   TEIN   =    0.0    initial temperature
   TEBEG  =    0.0;   TEEND  =   0.0 temperature during run
   SMASS  =  -3.00    Nose mass-parameter (am)
   estimated Nose-frequenzy (Omega)   =  0.10E-29 period in steps =****** mass=  -0.346E-26a.u.
   SCALEE = 1.0000    scale energy and forces
   NPACO  =    256;   APACO  = 16.0  distance and # of slots for P.C.
   PSTRESS=    0.0 pullay stress

  Mass of Ions in am
   POMASS =  12.01 16.00
  Ionic Valenz
   ZVAL   =   4.00  6.00
  Atomic Wigner-Seitz radii
   RWIGS  =  -1.00 -1.00
  virtual crystal weights 
   VCA    =   1.00  1.00
   NELECT =     206.0000    total number of electrons
   NUPDOWN=      -1.0000    fix difference up-down

 DOS related values:
   EMIN   =  10.00;   EMAX   =-10.00  energy-range for DOS
   EFERMI =   0.00
   ISMEAR =     0;   SIGMA  =   0.05  broadening in eV -4-tet -1-fermi 0-gaus

 Electronic relaxation 2 (details)
   IALGO  =     68    algorithm
   LDIAG  =      T    sub-space diagonalisation (order eigenvalues)
   LSUBROT=      F    optimize rotation matrix (better conditioning)
   TURBO    =      0    0=normal 1=particle mesh
   IRESTART =      0    0=no restart 2=restart with 2 vectors
   NREBOOT  =      0    no. of reboots
   NMIN     =      0    reboot dimension
   EREF     =   0.00    reference energy to select bands
   IMIX   =      4    mixing-type and parameters
     AMIX     =   0.40;   BMIX     =  1.00
     AMIX_MAG =   1.60;   BMIX_MAG =  1.00
     AMIN     =   0.10
     WC   =   100.;   INIMIX=   1;  MIXPRE=   1;  MAXMIX= -45

 Intra band minimization:
   WEIMIN = 0.0000     energy-eigenvalue tresh-hold
   EBREAK =  0.19E-07  absolut break condition
   DEPER  =   0.30     relativ break condition  

   TIME   =   0.40     timestep for ELM

  volume/ion in A,a.u.               =      51.38       346.73
  Fermi-wavevector in a.u.,A,eV,Ry     =   0.701305  1.325274  6.691736  0.491829
  Thomas-Fermi vector in A             =   1.785695
 
 Write flags
   LWAVE        =      F    write WAVECAR
   LDOWNSAMPLE  =      F    k-point downsampling of WAVECAR
   LCHARG       =      F    write CHGCAR
   LVTOT        =      F    write LOCPOT, total local potential
   LVHAR        =      F    write LOCPOT, Hartree potential only
   LELF         =      F    write electronic localiz. function (ELF)
   LORBIT       =      0    0 simple, 1 ext, 2 COOP (PROOUT), +10 PAW based schemes


 Dipole corrections
   LMONO  =      F    monopole corrections only (constant potential shift)
   LDIPOL =      F    correct potential (dipole corrections)
   IDIPOL =      0    1-x, 2-y, 3-z, 4-all directions 
   EPSILON=  1.0000000 bulk dielectric constant

 Exchange correlation treatment:
   GGA     =    --    GGA type
   LEXCH   =     8    internal setting for exchange type
   VOSKOWN=      0    Vosko Wilk Nusair interpolation
   LHFCALC =     F    Hartree Fock is set to
   LHFONE  =     F    Hartree Fock one center treatment
   AEXX    =    0.0000 exact exchange contribution

 Linear response parameters
   LEPSILON=     F    determine dielectric tensor
   LRPA    =     F    only Hartree local field effects (RPA)
   LNABLA  =     F    use nabla operator in PAW spheres
   LVEL    =     F    velocity operator in full k-point grid
   LINTERFAST=   F  fast interpolation
   KINTER  =     0    interpolate to denser k-point grid
   CSHIFT  =0.1000    complex shift for real part using Kramers Kronig
   OMEGAMAX=  -1.0    maximum frequency
   DEG_THRESHOLD= 0.2000000E-02 threshold for treating states as degnerate
   RTIME   =   -0.100 relaxation time in fs
  (WPLASMAI=    0.000 imaginary part of plasma frequency in eV, 0.658/RTIME)
   DFIELD  = 0.0000000 0.0000000 0.0000000 field for delta impulse in time
 
 Orbital magnetization related:
   ORBITALMAG=     F  switch on orbital magnetization
   LCHIMAG   =     F  perturbation theory with respect to B field
   DQ        =  0.001000  dq finite difference perturbation B field
   LLRAUG    =     F  two centre corrections for induced B field



--------------------------------------------------------------------------------------------------------


 Static calculation
 charge density and potential will be updated during run
 non-spin polarized calculation
 RMM-DIIS sequential band-by-band and
  variant of blocked Davidson during initial phase
 perform sub-space diagonalisation
    before iterative eigenvector-optimisation
 modified Broyden-mixing scheme, WC =      100.0
 initial mixing is a Kerker type mixing with AMIX =  0.4000 and BMIX =      1.0000
 Hartree-type preconditioning will be used
 using additional bands           29
 reciprocal scheme for non local part
 use partial core corrections
 calculate Harris-corrections to forces 
   (improved forces if not selfconsistent)
 use gradient corrections 
 use of overlap-Matrix (Vanderbilt PP)
 Gauss-broadening in eV      SIGMA  =   0.05


--------------------------------------------------------------------------------------------------------


  energy-cutoff  :      400.00
  volume of cell :     2620.42
      direct lattice vectors                 reciprocal lattice vectors
    12.300000191  0.000000000  0.000000000     0.081300812 -0.046939053  0.000000000
     6.150000804 10.652112223  0.000000000     0.000000000  0.093878095  0.000000000
     0.000000000  0.000000000 20.000000000     0.000000000  0.000000000  0.050000000

  length of vectors
    12.300000191 12.300000191 20.000000000     0.093878095  0.093878095  0.050000000


 
 old parameters found on file WAVECAR:
  energy-cutoff  :      400.00
  volume of cell :     2620.42
      direct lattice vectors                 reciprocal lattice vectors
    12.300000191  0.000000000  0.000000000     0.081300812 -0.046939053  0.000000000
     6.150000804 10.652112223  0.000000000     0.000000000  0.093878095  0.000000000
     0.000000000  0.000000000 20.000000000     0.000000000  0.000000000  0.050000000

  length of vectors

 
 k-points in units of 2pi/SCALE and weight: K-POINTS                                
   0.00000000  0.00000000  0.00000000       0.111
   0.02710027 -0.01564635  0.00000000       0.222
   0.00000000  0.03129270  0.00000000       0.222
   0.02710027  0.01564635  0.00000000       0.222
  -0.02710027  0.04693905  0.00000000       0.222
 
 k-points in reciprocal lattice and weights: K-POINTS                                
   0.00000000  0.00000000  0.00000000       0.111
   0.33333333  0.00000000  0.00000000       0.222
   0.00000000  0.33333333  0.00000000       0.222
   0.33333333  0.33333333  0.00000000       0.222
  -0.33333333  0.33333333  0.00000000       0.222
 
 position of ions in fractional coordinates (direct lattice) 
   0.00000000  0.00000000  0.41799748
   0.20000000  0.00000000  0.41799748
   0.40000000  0.00000000  0.41799748
   0.60000000  0.00000000  0.41799748
   0.80000000  0.00000000  0.41799748
   0.00000000  0.20000000  0.41799748
   0.20000000  0.20000000  0.41799748
   0.40000000  0.20000000  0.41799748
   0.60000000  0.20000000  0.41799748
   0.80000000  0.20000000  0.41799748
   0.00000000  0.40000000  0.41799748
   0.20000000  0.40000000  0.41799748
   0.39957410  0.40000000  0.41757158
   0.60000000  0.40000000  0.41799748
   0.80000000  0.40000000  0.41799748
   0.00000000  0.60000000  0.41799748
   0.20000000  0.60000000  0.41799748
   0.40000000  0.60000000  0.41799748
   0.60000000  0.60000000  0.41799748
   0.80000000  0.60000000  0.41799748
   0.00000000  0.80000000  0.41799748
   0.20000000  0.80000000  0.41799748
   0.40000000  0.80000000  0.41799748
   0.60000000  0.80000000  0.41799748
   0.80000000  0.80000000  0.41799748
   0.06666667  0.06666660  0.41800609
   0.26666667  0.06666660  0.41800609
   0.46666667  0.06666660  0.41800609
   0.66666667  0.06666660  0.41800609
   0.86666667  0.06666660  0.41800609
   0.06666667  0.26666660  0.41800609
   0.26666667  0.26666660  0.41800609
   0.46666667  0.26666660  0.41800609
   0.66666667  0.26666660  0.41800609
   0.86666667  0.26666660  0.41800609
   0.06666667  0.46666660  0.41800609
   0.26666667  0.46666660  0.41800609
   0.46666667  0.46666660  0.41800609
   0.66666667  0.46666660  0.41800609
   0.86666667  0.46666660  0.41800609
   0.06666667  0.66666660  0.41800609
   0.26666667  0.66666660  0.41800609
   0.46666667  0.66666660  0.41800609
   0.66666667  0.66666660  0.41800609
   0.86666667  0.66666660  0.41800609
   0.06666667  0.86666660  0.41800609
   0.26666667  0.86666660  0.41800609
   0.46666667  0.86666660  0.41800609
   0.66666667  0.86666660  0.41800609
   0.86666667  0.86666660  0.41800609
   0.40000000  0.40000000  0.46800609
 
 position of ions in cartesian coordinates  (Angst):
   0.00000000  0.00000000  8.35994958
   2.46000004  0.00000000  8.35994958
   4.92000008  0.00000000  8.35994958
   7.38000011  0.00000000  8.35994958
   9.84000015  0.00000000  8.35994958
   1.23000016  2.13042244  8.35994958
   3.69000020  2.13042244  8.35994958
   6.15000024  2.13042244  8.35994958
   8.61000028  2.13042244  8.35994958
  11.07000031  2.13042244  8.35994958
   2.46000032  4.26084489  8.35994958
   4.92000036  4.26084489  8.35994958
   7.37476180  4.26084489  8.35143153
   9.84000044  4.26084489  8.35994958
  12.30000047  4.26084489  8.35994958
   3.69000048  6.39126733  8.35994958
   6.15000052  6.39126733  8.35994958
   8.61000056  6.39126733  8.35994958
  11.07000060  6.39126733  8.35994958
  13.53000064  6.39126733  8.35994958
   4.92000064  8.52168978  8.35994958
   7.38000068  8.52168978  8.35994958
   9.84000072  8.52168978  8.35994958
  12.30000076  8.52168978  8.35994958
  14.76000080  8.52168978  8.35994958
   1.22999970  0.71014014  8.36012184
   3.68999974  0.71014014  8.36012184
   6.14999977  0.71014014  8.36012184
   8.60999981  0.71014014  8.36012184
  11.06999985  0.71014014  8.36012184
   2.45999986  2.84056258  8.36012184
   4.91999990  2.84056258  8.36012184
   7.37999994  2.84056258  8.36012184
   9.83999997  2.84056258  8.36012184
  12.30000001  2.84056258  8.36012184
   3.69000002  4.97098503  8.36012184
   6.15000006  4.97098503  8.36012184
   8.61000010  4.97098503  8.36012184
  11.07000013  4.97098503  8.36012184
  13.53000017  4.97098503  8.36012184
   4.92000018  7.10140747  8.36012184
   7.38000022  7.10140747  8.36012184
   9.84000026  7.10140747  8.36012184
  12.30000030  7.10140747  8.36012184
  14.76000033  7.10140747  8.36012184
   6.15000034  9.23182991  8.36012184
   8.61000038  9.23182991  8.36012184
  11.07000042  9.23182991  8.36012184
  13.53000046  9.23182991  8.36012184
  15.99000049  9.23182991  8.36012184
   7.38000040  4.26084489  9.36012184
 


--------------------------------------------------------------------------------------------------------


 k-point  1 :   0.0000 0.0000 0.0000  plane waves:   47639
 k-point  2 :   0.3333 0.0000 0.0000  plane waves:   47601
 k-point  3 :   0.0000 0.3333 0.0000  plane waves:   47601
 k-point  4 :   0.3333 0.3333 0.0000  plane waves:   47601
 k-point  5 :  -0.3333 0.3333 0.0000  plane waves:   47598

 maximum and minimum number of plane-waves per node :      5975     5928

 maximum number of plane-waves:     47639
 maximum index in each direction: 
   IXMAX=   20   IYMAX=   20   IZMAX=   32
   IXMIN=  -20   IYMIN=  -20   IZMIN=  -32


 parallel 3D FFT for wavefunctions:
    minimum data exchange during FFTs selected (reduces bandwidth)
 parallel 3D FFT for charge:
    minimum data exchange during FFTs selected (reduces bandwidth)


 total amount of memory used by VASP MPI-rank0    90113. kBytes
=======================================================================

   base      :      30000. kBytes
   nonl-proj :       8674. kBytes
   fftplans  :      26248. kBytes
   grid      :      14579. kBytes
   one-center:         21. kBytes
   wavefun   :      10591. kBytes
 
     INWAV:  cpu time    0.8599: real time    0.8676
 Broyden mixing: mesh for mixing (old mesh)
   NGX = 41   NGY = 41   NGZ = 65
  (NGX  =160   NGY  =160   NGZ  =280)
  gives a total of 109265 points

 initial charge density was supplied:
 number of electron     206.0000000 magnetization 
 keeping initial charge density in first step


--------------------------------------------------------------------------------------------------------


 Maximum index for augmentation-charges         1119 (set IRDMAX)


--------------------------------------------------------------------------------------------------------


 First call to EWALD:  gamma=   0.129
 Maximum number of real-space cells 3x 3x 2
 Maximum number of reciprocal cells 3x 3x 4

    FEWALD:  cpu time    0.0015: real time    0.0032


--------------------------------------- Iteration      1(   1)  ---------------------------------------


    POTLOK:  cpu time    0.1489: real time    0.1721
    SETDIJ:  cpu time    0.1020: real time    0.1106
     EDDAV:  cpu time    5.3721: real time    5.6807
       DOS:  cpu time    0.0005: real time    0.0006
    CHARGE:  cpu time    0.3942: real time    0.3945
    MIXING:  cpu time    0.0057: real time    0.0058
    --------------------------------------------
      LOOP:  cpu time    6.0235: real time    6.3643

 eigenvalue-minimisations  :  1380
 total energy-change (2. order) :-0.4536984E+03  (-0.2841529E+02)
 number of electron     206.0000000 magnetization 
 augmentation part        5.5008248 magnetization 

 Broyden mixing:
  rms(total) = 0.61374E-01    rms(broyden)= 0.61329E-01
  rms(prec ) = 0.64574E-01
  weight for this iteration     100.00

 Free energy of the ion-electron system (eV)
  ---------------------------------------------------
  alpha Z        PSCENC =        82.54348252
  Ewald energy   TEWEN  =     34513.59812862
  -Hartree energ DENC   =    -41033.40371562
  -exchange      EXHF   =         0.00000000
  -V(xc)+E(xc)   XCENC  =       721.33967608
  PAW double counting   =     22781.19595426   -22817.52509957
  entropy T*S    EENTRO =        -0.00042229
  eigenvalues    EBANDS =     -2490.07076945
  atomic energy  EATOM  =      7788.62438962
  Solvation  Ediel_sol  =         0.00000000
  ---------------------------------------------------
  free energy    TOTEN  =      -453.69837584 eV

  energy without entropy =     -453.69795355  energy(sigma->0) =     -453.69816469


--------------------------------------------------------------------------------------------------------




--------------------------------------- Iteration      1(   2)  ---------------------------------------


    POTLOK:  cpu time    0.0976: real time    0.0990
    SETDIJ:  cpu time    0.0797: real time    0.0820
    EDDIAG:  cpu time    0.8726: real time    0.8880
  RMM-DIIS:  cpu time    3.6507: real time    3.7048
    ORTHCH:  cpu time    0.0410: real time    0.0410
       DOS:  cpu time    0.0004: real time    0.0003
    CHARGE:  cpu time    0.3926: real time    0.3930
    MIXING:  cpu time    0.0052: real time    0.0052
    --------------------------------------------
      LOOP:  cpu time    5.1398: real time    5.2134

 eigenvalue-minimisations  :  1416
 total energy-change (2. order) :-0.9868536E+00  (-0.9914820E+00)
 number of electron     206.0000000 magnetization 
 augmentation part        5.5380760 magnetization 

 Broyden mixing:
  rms(total) = 0.33457E-01    rms(broyden)= 0.33327E-01
  rms(prec ) = 0.36667E-01
  weight for this iteration     100.00

 eigenvalues of (default mixing * dielectric matrix)
  average eigenvalue GAMMA=   0.6805
  0.6805

 Free energy of the ion-electron system (eV)
  ---------------------------------------------------
  alpha Z        PSCENC =        82.54348252
  Ewald energy   TEWEN  =     34513.59812862
  -Hartree energ DENC   =    -41030.08737492
  -exchange      EXHF   =         0.00000000
  -V(xc)+E(xc)   XCENC  =       721.20144120
  PAW double counting   =     22842.72614374   -22878.98526025
  entropy T*S    EENTRO =        -0.00003933
  eigenvalues    EBANDS =     -2494.30614069
  atomic energy  EATOM  =      7788.62438962
  Solvation  Ediel_sol  =         0.00000000
  ---------------------------------------------------
  free energy    TOTEN  =      -454.68522949 eV

  energy without entropy =     -454.68519016  energy(sigma->0) =     -454.68520982


--------------------------------------------------------------------------------------------------------




--------------------------------------- Iteration      1(   3)  ---------------------------------------


    POTLOK:  cpu time    0.0972: real time    0.1001
    SETDIJ:  cpu time    0.0795: real time    0.0818
    EDDIAG:  cpu time    0.8701: real time    0.8858
  RMM-DIIS:  cpu time    3.9604: real time    4.0198
    ORTHCH:  cpu time    0.0416: real time    0.0417
       DOS:  cpu time    0.0004: real time    0.0004
    CHARGE:  cpu time    0.3851: real time    0.3927
    MIXING:  cpu time    0.0046: real time    0.0046
    --------------------------------------------
      LOOP:  cpu time    5.4389: real time    5.5269

 eigenvalue-minimisations  :  1547
 total energy-change (2. order) :-0.5050338E-01  (-0.5839574E-01)
 number of electron     206.0000000 magnetization 
 augmentation part        5.5383646 magnetization 

 Broyden mixing:
  rms(total) = 0.19221E-01    rms(broyden)= 0.19199E-01
  rms(prec ) = 0.19749E-01
  weight for this iteration     100.00

 eigenvalues of (default mixing * dielectric matrix)
  average eigenvalue GAMMA=   0.6195
  0.6195  0.6195

 Free energy of the ion-electron system (eV)
  ---------------------------------------------------
  alpha Z        PSCENC =        82.54348252
  Ewald energy   TEWEN  =     34513.59812862
  -Hartree energ DENC   =    -41030.91500432
  -exchange      EXHF   =         0.00000000
  -V(xc)+E(xc)   XCENC  =       721.23812220
  PAW double counting   =     22829.39425740   -22865.66720129
  entropy T*S    EENTRO =        -0.00008368
  eigenvalues    EBANDS =     -2493.55182394
  atomic energy  EATOM  =      7788.62438962
  Solvation  Ediel_sol  =         0.00000000
  ---------------------------------------------------
  free energy    TOTEN  =      -454.73573286 eV

  energy without entropy =     -454.73564919  energy(sigma->0) =     -454.73569102


--------------------------------------------------------------------------------------------------------




--------------------------------------- Iteration      1(   4)  ---------------------------------------


    POTLOK:  cpu time    0.0969: real time    0.0971
    SETDIJ:  cpu time    0.0797: real time    0.0800
    EDDIAG:  cpu time    0.8698: real time    0.8852
  RMM-DIIS:  cpu time    3.9812: real time    4.0888
    ORTHCH:  cpu time    0.0415: real time    0.0415
       DOS:  cpu time    0.0004: real time    0.0004
    CHARGE:  cpu time    0.3923: real time    0.3923
    MIXING:  cpu time    0.0049: real time    0.0049
    --------------------------------------------
      LOOP:  cpu time    5.4667: real time    5.5902

 eigenvalue-minimisations  :  1586
 total energy-change (2. order) :-0.3918027E-02  (-0.4067545E-02)
 number of electron     206.0000000 magnetization 
 augmentation part        5.5409417 magnetization 

 Broyden mixing:
  rms(total) = 0.17899E-01    rms(broyden)= 0.17899E-01
  rms(prec ) = 0.18414E-01
  weight for this iteration     100.00

 eigenvalues of (default mixing * dielectric matrix)
  average eigenvalue GAMMA=   1.1264
  1.3920  1.3920  0.5951

 Free energy of the ion-electron system (eV)
  ---------------------------------------------------
  alpha Z        PSCENC =        82.54348252
  Ewald energy   TEWEN  =     34513.59812862
  -Hartree energ DENC   =    -41031.23011278
  -exchange      EXHF   =         0.00000000
  -V(xc)+E(xc)   XCENC  =       721.25235128
  PAW double counting   =     22818.03116861   -22854.31022050
  entropy T*S    EENTRO =        -0.00007247
  eigenvalues    EBANDS =     -2493.24876578
  atomic energy  EATOM  =      7788.62438962
  Solvation  Ediel_sol  =         0.00000000
  ---------------------------------------------------
  free energy    TOTEN  =      -454.73965089 eV

  energy without entropy =     -454.73957842  energy(sigma->0) =     -454.73961465


--------------------------------------------------------------------------------------------------------




--------------------------------------- Iteration      1(   5)  ---------------------------------------


    POTLOK:  cpu time    0.0980: real time    0.0994
    SETDIJ:  cpu time    0.0819: real time    0.0819
    EDDIAG:  cpu time    0.9075: real time    0.9157
  RMM-DIIS:  cpu time    3.8461: real time    3.9048
    ORTHCH:  cpu time    0.0414: real time    0.0414
       DOS:  cpu time    0.0004: real time    0.0004
    CHARGE:  cpu time    0.3796: real time    0.3956
    MIXING:  cpu time    0.0047: real time    0.0047
    --------------------------------------------
      LOOP:  cpu time    5.3596: real time    5.4438

 eigenvalue-minimisations  :  1501
 total energy-change (2. order) :-0.1104192E-03  (-0.3432257E-03)
 number of electron     206.0000000 magnetization 
 augmentation part        5.5397446 magnetization 

 Broyden mixing:
  rms(total) = 0.42334E-02    rms(broyden)= 0.42306E-02
  rms(prec ) = 0.43579E-02
  weight for this iteration     100.00

 eigenvalues of (default mixing * dielectric matrix)
  average eigenvalue GAMMA=   1.2183
  2.1502  0.5986  1.0622  1.0622

 Free energy of the ion-electron system (eV)
  ---------------------------------------------------
  alpha Z        PSCENC =        82.54348252
  Ewald energy   TEWEN  =     34513.59812862
  -Hartree energ DENC   =    -41032.40555312
  -exchange      EXHF   =         0.00000000
  -V(xc)+E(xc)   XCENC  =       721.30136310
  PAW double counting   =     22771.61227517   -22807.91490654
  entropy T*S    EENTRO =        -0.00007607
  eigenvalues    EBANDS =     -2492.09886459
  atomic energy  EATOM  =      7788.62438962
  Solvation  Ediel_sol  =         0.00000000
  ---------------------------------------------------
  free energy    TOTEN  =      -454.73976131 eV

  energy without entropy =     -454.73968524  energy(sigma->0) =     -454.73972327


--------------------------------------------------------------------------------------------------------




--------------------------------------- Iteration      1(   6)  ---------------------------------------


    POTLOK:  cpu time    0.0980: real time    0.1008
    SETDIJ:  cpu time    0.0803: real time    0.0818
    EDDIAG:  cpu time    0.8706: real time    0.8837
  RMM-DIIS:  cpu time    3.9867: real time    4.0414
    ORTHCH:  cpu time    0.0413: real time    0.0413
       DOS:  cpu time    0.0004: real time    0.0004
    CHARGE:  cpu time    0.3925: real time    0.3925
    MIXING:  cpu time    0.0045: real time    0.0045
    --------------------------------------------
      LOOP:  cpu time    5.4742: real time    5.5463

 eigenvalue-minimisations  :  1555
 total energy-change (2. order) :-0.7120639E-04  (-0.4549027E-04)
 number of electron     206.0000000 magnetization 
 augmentation part        5.5392314 magnetization 

 Broyden mixing:
  rms(total) = 0.33055E-02    rms(broyden)= 0.33041E-02
  rms(prec ) = 0.33992E-02
  weight for this iteration     100.00

 eigenvalues of (default mixing * dielectric matrix)
  average eigenvalue GAMMA=   1.2644
  2.1367  1.2960  1.2960  0.9927  0.6007

 Free energy of the ion-electron system (eV)
  ---------------------------------------------------
  alpha Z        PSCENC =        82.54348252
  Ewald energy   TEWEN  =     34513.59812862
  -Hartree energ DENC   =    -41032.89015903
  -exchange      EXHF   =         0.00000000
  -V(xc)+E(xc)   XCENC  =       721.32157157
  PAW double counting   =     22753.81905316   -22790.12950175
  entropy T*S    EENTRO =        -0.00007863
  eigenvalues    EBANDS =     -2491.62671859
  atomic energy  EATOM  =      7788.62438962
  Solvation  Ediel_sol  =         0.00000000
  ---------------------------------------------------
  free energy    TOTEN  =      -454.73983252 eV

  energy without entropy =     -454.73975388  energy(sigma->0) =     -454.73979320


--------------------------------------------------------------------------------------------------------




--------------------------------------- Iteration      1(   7)  ---------------------------------------


    POTLOK:  cpu time    0.0988: real time    0.0989
    SETDIJ:  cpu time    0.0799: real time    0.0799
    EDDIAG:  cpu time    0.8808: real time    0.8947
  RMM-DIIS:  cpu time    2.8149: real time    2.8580
    ORTHCH:  cpu time    0.0417: real time    0.0417
       DOS:  cpu time    0.0004: real time    0.0004
    --------------------------------------------
      LOOP:  cpu time    3.9165: real time    3.9736

 eigenvalue-minimisations  :  1024
 total energy-change (2. order) : 0.5393267E-06  (-0.2591190E-05)
 number of electron     206.0000000 magnetization 
 augmentation part        5.5392314 magnetization 

 Free energy of the ion-electron system (eV)
  ---------------------------------------------------
  alpha Z        PSCENC =        82.54348252
  Ewald energy   TEWEN  =     34513.59812862
  -Hartree energ DENC   =    -41032.71674218
  -exchange      EXHF   =         0.00000000
  -V(xc)+E(xc)   XCENC  =       721.31388981
  PAW double counting   =     22762.61540597   -22798.92082508
  entropy T*S    EENTRO =        -0.00007910
  eigenvalues    EBANDS =     -2491.79748216
  atomic energy  EATOM  =      7788.62438962
  Solvation  Ediel_sol  =         0.00000000
  ---------------------------------------------------
  free energy    TOTEN  =      -454.73983198 eV

  energy without entropy =     -454.73975288  energy(sigma->0) =     -454.73979243


--------------------------------------------------------------------------------------------------------




 average (electrostatic) potential at core
  the test charge radii are     0.6991  0.7215
  (the norm of the test charge is              1.0000)
       1 -58.2600       2 -58.2592       3 -58.2025       4 -58.0556       5 -58.2030
       6 -58.2598       7 -58.2764       8 -58.1301       9 -58.1344      10 -58.2746
      11 -58.2022      12 -58.1315      13 -60.6094      14 -58.1332      15 -58.2031
      16 -58.0574      17 -58.1334      18 -58.1311      19 -58.0537      20 -58.0630
      21 -58.2025      22 -58.2755      23 -58.2028      24 -58.0625      25 -58.0638
      26 -58.3826      27 -58.2929      28 -58.2207      29 -58.2222      30 -58.2923
      31 -58.2936      32 -58.3180      33 -58.8310      34 -58.3151      35 -58.2918
      36 -58.2211      37 -58.8264      38 -58.8363      39 -58.2220      40 -58.2222
      41 -58.2219      42 -58.3165      43 -58.2210      44 -58.1618      45 -58.1636
      46 -58.2934      47 -58.2920      48 -58.2219      49 -58.1626      50 -58.2228
      51 -81.4983
 
 
 
 E-fermi :  -3.0163     XC(G=0):  -2.2085     alpha+bet : -1.9409


 k-point     1 :       0.0000    0.0000    0.0000
  band No.  band energies     occupation 
      1     -31.6294      2.00000
      2     -22.2704      2.00000
      3     -21.5027      2.00000
      4     -21.5020      2.00000
      5     -21.3940      2.00000
      6     -21.3939      2.00000
      7     -21.3931      2.00000
      8     -20.8717      2.00000
      9     -19.8738      2.00000
     10     -19.8688      2.00000
     11     -19.5495      2.00000
     12     -19.5489      2.00000
     13     -19.5387      2.00000
     14     -19.1898      2.00000
     15     -18.8989      2.00000
     16     -18.8957      2.00000
     17     -18.6436      2.00000
     18     -18.6433      2.00000
     19     -18.6427      2.00000
     20     -17.8798      2.00000
     21     -17.0128      2.00000
     22     -17.0002      2.00000
     23     -16.4783      2.00000
     24     -16.4578      2.00000
     25     -16.4577      2.00000
     26     -16.0493      2.00000
     27     -15.9907      2.00000
     28     -15.9887      2.00000
     29     -15.4975      2.00000
     30     -15.4973      2.00000
     31     -15.4929      2.00000
     32     -15.0911      2.00000
     33     -14.6224      2.00000
     34     -14.6187      2.00000
     35     -14.1503      2.00000
     36     -14.1502      2.00000
     37     -14.1436      2.00000
     38     -13.9709      2.00000
     39     -12.9763      2.00000
     40     -12.9715      2.00000
     41     -12.0343      2.00000
     42     -11.7661      2.00000
     43     -11.7656      2.00000
     44     -11.7628      2.00000
     45     -11.6904      2.00000
     46     -11.6902      2.00000
     47     -11.6516      2.00000
     48     -11.6495      2.00000
     49     -11.6494      2.00000
     50     -11.6484      2.00000
     51     -10.7966      2.00000
     52     -10.7964      2.00000
     53     -10.4167      2.00000
     54     -10.3343      2.00000
     55     -10.2893      2.00000
     56     -10.2892      2.00000
     57     -10.2710      2.00000
     58     -10.0629      2.00000
     59      -9.6827      2.00000
     60      -9.6821      2.00000
     61      -9.3263      2.00000
     62      -9.3260      2.00000
     63      -9.2996      2.00000
     64      -9.2815      2.00000
     65      -9.2799      2.00000
     66      -9.0477      2.00000
     67      -9.0057      2.00000
     68      -9.0057      2.00000
     69      -8.9482      2.00000
     70      -8.9416      2.00000
     71      -8.9401      2.00000
     72      -8.9400      2.00000
     73      -8.9189      2.00000
     74      -8.9187      2.00000
     75      -8.8942      2.00000
     76      -8.4268      2.00000
     77      -7.8031      2.00000
     78      -7.8022      2.00000
     79      -7.3293      2.00000
     80      -7.3249      2.00000
     81      -7.3098      2.00000
     82      -7.3067      2.00000
     83      -7.3051      2.00000
     84      -7.3002      2.00000
     85      -7.1607      2.00000
     86      -7.1605      2.00000
     87      -7.1546      2.00000
     88      -6.7495      2.00000
     89      -6.5154      2.00000
     90      -6.5119      2.00000
     91      -6.2667      2.00000
     92      -6.2463      2.00000
     93      -6.2459      2.00000
     94      -5.9218      2.00000
     95      -5.9211      2.00000
     96      -5.1907      2.00000
     97      -4.7815      2.00000
     98      -4.7713      2.00000
     99      -4.2706      2.00000
    100      -4.2659      2.00000
    101      -4.2659      2.00000
    102      -3.2249      2.00000
    103      -3.2136      2.00000
    104      -2.9110      0.00288
    105      -1.4613      0.00000
    106      -1.4568      0.00000
    107      -1.4566      0.00000
    108      -0.9897      0.00000
    109      -0.9876      0.00000
    110      -0.5412      0.00000
    111       0.4173      0.00000
    112       0.4220      0.00000
    113       0.4221      0.00000
    114       0.5638      0.00000
    115       0.8454      0.00000
    116       0.8465      0.00000
    117       1.2914      0.00000
    118       1.3447      0.00000
    119       1.6756      0.00000
    120       1.8031      0.00000
    121       1.8047      0.00000
    122       1.8054      0.00000
    123       1.8284      0.00000
    124       1.8296      0.00000
    125       2.0312      0.00000
    126       2.1770      0.00000
    127       2.1797      0.00000
    128       2.1798      0.00000
    129       2.3479      0.00000
    130       2.3482      0.00000
    131       2.5997      0.00000
    132       2.6475      0.00000

 k-point     2 :       0.3333    0.0000    0.0000
  band No.  band energies     occupation 
      1     -31.6295      2.00000
      2     -22.1885      2.00000
      3     -21.8685      2.00000
      4     -21.6606      2.00000
      5     -21.4537      2.00000
      6     -21.0337      2.00000
      7     -20.8957      2.00000
      8     -20.7266      2.00000
      9     -20.4189      2.00000
     10     -20.1605      2.00000
     11     -19.7857      2.00000
     12     -19.6927      2.00000
     13     -19.3259      2.00000
     14     -19.2414      2.00000
     15     -19.0595      2.00000
     16     -18.5919      2.00000
     17     -18.4539      2.00000
     18     -18.1166      2.00000
     19     -18.0594      2.00000
     20     -17.5888      2.00000
     21     -17.4943      2.00000
     22     -17.3002      2.00000
     23     -17.2735      2.00000
     24     -16.8489      2.00000
     25     -16.6489      2.00000
     26     -16.1754      2.00000
     27     -15.9687      2.00000
     28     -15.8379      2.00000
     29     -15.2986      2.00000
     30     -15.1635      2.00000
     31     -15.1308      2.00000
     32     -14.8855      2.00000
     33     -14.7809      2.00000
     34     -14.4811      2.00000
     35     -14.4557      2.00000
     36     -13.7598      2.00000
     37     -13.7459      2.00000
     38     -13.2003      2.00000
     39     -13.0886      2.00000
     40     -12.9335      2.00000
     41     -12.9038      2.00000
     42     -12.5811      2.00000
     43     -12.5504      2.00000
     44     -12.3911      2.00000
     45     -12.0184      2.00000
     46     -11.6583      2.00000
     47     -11.4432      2.00000
     48     -11.2946      2.00000
     49     -11.1190      2.00000
     50     -10.9098      2.00000
     51     -10.8490      2.00000
     52     -10.5835      2.00000
     53     -10.5329      2.00000
     54     -10.2758      2.00000
     55     -10.2371      2.00000
     56     -10.1578      2.00000
     57     -10.0426      2.00000
     58      -9.8537      2.00000
     59      -9.8211      2.00000
     60      -9.6496      2.00000
     61      -9.6079      2.00000
     62      -9.5588      2.00000
     63      -9.5272      2.00000
     64      -9.3703      2.00000
     65      -9.3392      2.00000
     66      -9.2579      2.00000
     67      -9.1762      2.00000
     68      -9.0994      2.00000
     69      -9.0811      2.00000
     70      -8.8663      2.00000
     71      -8.7116      2.00000
     72      -8.6644      2.00000
     73      -8.5095      2.00000
     74      -8.4024      2.00000
     75      -8.2877      2.00000
     76      -8.1346      2.00000
     77      -8.0938      2.00000
     78      -8.0659      2.00000
     79      -7.9712      2.00000
     80      -7.8054      2.00000
     81      -7.6197      2.00000
     82      -7.3640      2.00000
     83      -7.3403      2.00000
     84      -7.2659      2.00000
     85      -7.2003      2.00000
     86      -6.9194      2.00000
     87      -6.8736      2.00000
     88      -6.6924      2.00000
     89      -6.5966      2.00000
     90      -6.3477      2.00000
     91      -6.1853      2.00000
     92      -6.0738      2.00000
     93      -5.9247      2.00000
     94      -5.7421      2.00000
     95      -5.6496      2.00000
     96      -5.3244      2.00000
     97      -5.1187      2.00000
     98      -4.9705      2.00000
     99      -4.9222      2.00000
    100      -4.2728      2.00000
    101      -4.1719      2.00000
    102      -3.3411      2.00000
    103      -3.1361      1.99930
    104      -2.8043      0.00000
    105      -1.5905      0.00000
    106      -1.4221      0.00000
    107      -0.8393      0.00000
    108      -0.8181      0.00000
    109      -0.7051      0.00000
    110      -0.6672      0.00000
    111      -0.1270      0.00000
    112      -0.0031      0.00000
    113       0.2943      0.00000
    114       0.7062      0.00000
    115       0.7274      0.00000
    116       1.0998      0.00000
    117       1.1766      0.00000
    118       1.3654      0.00000
    119       1.4653      0.00000
    120       1.5393      0.00000
    121       1.5729      0.00000
    122       1.6381      0.00000
    123       1.8263      0.00000
    124       1.9193      0.00000
    125       2.0404      0.00000
    126       2.2217      0.00000
    127       2.2671      0.00000
    128       2.3316      0.00000
    129       2.3441      0.00000
    130       2.3993      0.00000
    131       2.4635      0.00000
    132       2.7963      0.00000

 k-point     3 :       0.0000    0.3333    0.0000
  band No.  band energies     occupation 
      1     -31.6295      2.00000
      2     -22.1884      2.00000
      3     -21.8686      2.00000
      4     -21.6608      2.00000
      5     -21.4535      2.00000
      6     -21.0340      2.00000
      7     -20.8956      2.00000
      8     -20.7259      2.00000
      9     -20.4192      2.00000
     10     -20.1606      2.00000
     11     -19.7851      2.00000
     12     -19.6945      2.00000
     13     -19.3255      2.00000
     14     -19.2417      2.00000
     15     -19.0585      2.00000
     16     -18.5921      2.00000
     17     -18.4533      2.00000
     18     -18.1179      2.00000
     19     -18.0575      2.00000
     20     -17.5885      2.00000
     21     -17.4951      2.00000
     22     -17.3003      2.00000
     23     -17.2744      2.00000
     24     -16.8489      2.00000
     25     -16.6508      2.00000
     26     -16.1713      2.00000
     27     -15.9696      2.00000
     28     -15.8387      2.00000
     29     -15.2982      2.00000
     30     -15.1638      2.00000
     31     -15.1314      2.00000
     32     -14.8853      2.00000
     33     -14.7813      2.00000
     34     -14.4801      2.00000
     35     -14.4558      2.00000
     36     -13.7588      2.00000
     37     -13.7472      2.00000
     38     -13.2003      2.00000
     39     -13.0887      2.00000
     40     -12.9330      2.00000
     41     -12.9041      2.00000
     42     -12.5822      2.00000
     43     -12.5502      2.00000
     44     -12.3911      2.00000
     45     -12.0185      2.00000
     46     -11.6587      2.00000
     47     -11.4418      2.00000
     48     -11.2946      2.00000
     49     -11.1188      2.00000
     50     -10.9097      2.00000
     51     -10.8492      2.00000
     52     -10.5838      2.00000
     53     -10.5328      2.00000
     54     -10.2755      2.00000
     55     -10.2371      2.00000
     56     -10.1580      2.00000
     57     -10.0429      2.00000
     58      -9.8537      2.00000
     59      -9.8212      2.00000
     60      -9.6501      2.00000
     61      -9.6080      2.00000
     62      -9.5580      2.00000
     63      -9.5273      2.00000
     64      -9.3705      2.00000
     65      -9.3394      2.00000
     66      -9.2576      2.00000
     67      -9.1762      2.00000
     68      -9.0994      2.00000
     69      -9.0814      2.00000
     70      -8.8665      2.00000
     71      -8.7120      2.00000
     72      -8.6643      2.00000
     73      -8.5083      2.00000
     74      -8.4023      2.00000
     75      -8.2876      2.00000
     76      -8.1352      2.00000
     77      -8.0934      2.00000
     78      -8.0658      2.00000
     79      -7.9713      2.00000
     80      -7.8050      2.00000
     81      -7.6202      2.00000
     82      -7.3630      2.00000
     83      -7.3420      2.00000
     84      -7.2658      2.00000
     85      -7.2006      2.00000
     86      -6.9194      2.00000
     87      -6.8737      2.00000
     88      -6.6931      2.00000
     89      -6.5962      2.00000
     90      -6.3475      2.00000
     91      -6.1852      2.00000
     92      -6.0742      2.00000
     93      -5.9231      2.00000
     94      -5.7435      2.00000
     95      -5.6478      2.00000
     96      -5.3235      2.00000
     97      -5.1204      2.00000
     98      -4.9703      2.00000
     99      -4.9222      2.00000
    100      -4.2704      2.00000
    101      -4.1745      2.00000
    102      -3.3411      2.00000
    103      -3.1402      1.99954
    104      -2.7995      0.00000
    105      -1.5906      0.00000
    106      -1.4226      0.00000
    107      -0.8395      0.00000
    108      -0.8184      0.00000
    109      -0.7053      0.00000
    110      -0.6674      0.00000
    111      -0.1261      0.00000
    112      -0.0037      0.00000
    113       0.2940      0.00000
    114       0.7063      0.00000
    115       0.7274      0.00000
    116       1.1002      0.00000
    117       1.1770      0.00000
    118       1.3655      0.00000
    119       1.4661      0.00000
    120       1.5397      0.00000
    121       1.5731      0.00000
    122       1.6384      0.00000
    123       1.8271      0.00000
    124       1.9204      0.00000
    125       2.0421      0.00000
    126       2.2275      0.00000
    127       2.2706      0.00000
    128       2.3395      0.00000
    129       2.4320      0.00000
    130       2.7331      0.00000
    131       3.2566      0.00000
    132       3.6124      0.00000

 k-point     4 :       0.3333    0.3333    0.0000
  band No.  band energies     occupation 
      1     -31.6295      2.00000
      2     -22.1884      2.00000
      3     -21.8687      2.00000
      4     -21.6609      2.00000
      5     -21.4533      2.00000
      6     -21.0341      2.00000
      7     -20.8955      2.00000
      8     -20.7253      2.00000
      9     -20.4194      2.00000
     10     -20.1606      2.00000
     11     -19.7844      2.00000
     12     -19.6962      2.00000
     13     -19.3252      2.00000
     14     -19.2420      2.00000
     15     -19.0576      2.00000
     16     -18.5922      2.00000
     17     -18.4527      2.00000
     18     -18.1192      2.00000
     19     -18.0557      2.00000
     20     -17.5882      2.00000
     21     -17.4959      2.00000
     22     -17.3003      2.00000
     23     -17.2753      2.00000
     24     -16.8489      2.00000
     25     -16.6527      2.00000
     26     -16.1674      2.00000
     27     -15.9704      2.00000
     28     -15.8394      2.00000
     29     -15.2979      2.00000
     30     -15.1639      2.00000
     31     -15.1322      2.00000
     32     -14.8850      2.00000
     33     -14.7817      2.00000
     34     -14.4791      2.00000
     35     -14.4559      2.00000
     36     -13.7573      2.00000
     37     -13.7489      2.00000
     38     -13.2003      2.00000
     39     -13.0887      2.00000
     40     -12.9324      2.00000
     41     -12.9043      2.00000
     42     -12.5833      2.00000
     43     -12.5499      2.00000
     44     -12.3911      2.00000
     45     -12.0188      2.00000
     46     -11.6592      2.00000
     47     -11.4404      2.00000
     48     -11.2947      2.00000
     49     -11.1185      2.00000
     50     -10.9097      2.00000
     51     -10.8494      2.00000
     52     -10.5841      2.00000
     53     -10.5327      2.00000
     54     -10.2752      2.00000
     55     -10.2370      2.00000
     56     -10.1582      2.00000
     57     -10.0432      2.00000
     58      -9.8537      2.00000
     59      -9.8212      2.00000
     60      -9.6505      2.00000
     61      -9.6081      2.00000
     62      -9.5572      2.00000
     63      -9.5274      2.00000
     64      -9.3707      2.00000
     65      -9.3396      2.00000
     66      -9.2574      2.00000
     67      -9.1761      2.00000
     68      -9.0994      2.00000
     69      -9.0817      2.00000
     70      -8.8667      2.00000
     71      -8.7122      2.00000
     72      -8.6643      2.00000
     73      -8.5071      2.00000
     74      -8.4023      2.00000
     75      -8.2875      2.00000
     76      -8.1357      2.00000
     77      -8.0931      2.00000
     78      -8.0658      2.00000
     79      -7.9713      2.00000
     80      -7.8047      2.00000
     81      -7.6206      2.00000
     82      -7.3616      2.00000
     83      -7.3441      2.00000
     84      -7.2656      2.00000
     85      -7.2009      2.00000
     86      -6.9193      2.00000
     87      -6.8737      2.00000
     88      -6.6938      2.00000
     89      -6.5957      2.00000
     90      -6.3474      2.00000
     91      -6.1852      2.00000
     92      -6.0747      2.00000
     93      -5.9215      2.00000
     94      -5.7448      2.00000
     95      -5.6461      2.00000
     96      -5.3225      2.00000
     97      -5.1220      2.00000
     98      -4.9701      2.00000
     99      -4.9223      2.00000
    100      -4.2680      2.00000
    101      -4.1771      2.00000
    102      -3.3407      2.00000
    103      -3.1448      1.99972
    104      -2.7946      0.00000
    105      -1.5907      0.00000
    106      -1.4231      0.00000
    107      -0.8397      0.00000
    108      -0.8186      0.00000
    109      -0.7055      0.00000
    110      -0.6675      0.00000
    111      -0.1251      0.00000
    112      -0.0042      0.00000
    113       0.2938      0.00000
    114       0.7066      0.00000
    115       0.7275      0.00000
    116       1.1012      0.00000
    117       1.1779      0.00000
    118       1.3668      0.00000
    119       1.4675      0.00000
    120       1.5644      0.00000
    121       1.5803      0.00000
    122       1.7575      0.00000
    123       1.8260      0.00000
    124       2.1808      0.00000
    125       2.3395      0.00000
    126       2.4034      0.00000
    127       2.6151      0.00000
    128       2.7880      0.00000
    129       2.8493      0.00000
    130       3.2103      0.00000
    131       3.5946      0.00000
    132       4.1692      0.00000

 k-point     5 :      -0.3333    0.3333    0.0000
  band No.  band energies     occupation 
      1     -31.6295      2.00000
      2     -22.0803      2.00000
      3     -22.0068      2.00000
      4     -21.8006      2.00000
      5     -21.1711      2.00000
      6     -21.1495      2.00000
      7     -20.8662      2.00000
      8     -20.4108      2.00000
      9     -20.3360      2.00000
     10     -20.1719      2.00000
     11     -20.1499      2.00000
     12     -20.1426      2.00000
     13     -19.5637      2.00000
     14     -18.8190      2.00000
     15     -18.6665      2.00000
     16     -18.3725      2.00000
     17     -18.3486      2.00000
     18     -18.3359      2.00000
     19     -17.9287      2.00000
     20     -17.7971      2.00000
     21     -17.5988      2.00000
     22     -17.2602      2.00000
     23     -17.1510      2.00000
     24     -17.1179      2.00000
     25     -16.5421      2.00000
     26     -16.4270      2.00000
     27     -16.2771      2.00000
     28     -15.8081      2.00000
     29     -15.6256      2.00000
     30     -15.1761      2.00000
     31     -14.9503      2.00000
     32     -14.6401      2.00000
     33     -13.9611      2.00000
     34     -13.9397      2.00000
     35     -13.9246      2.00000
     36     -13.8748      2.00000
     37     -13.8638      2.00000
     38     -13.7917      2.00000
     39     -13.6835      2.00000
     40     -13.4941      2.00000
     41     -13.0276      2.00000
     42     -12.4653      2.00000
     43     -12.2546      2.00000
     44     -12.0677      2.00000
     45     -11.8211      2.00000
     46     -11.7734      2.00000
     47     -11.5639      2.00000
     48     -11.5459      2.00000
     49     -11.5227      2.00000
     50     -10.9242      2.00000
     51     -10.8109      2.00000
     52     -10.5182      2.00000
     53     -10.2057      2.00000
     54     -10.2033      2.00000
     55     -10.1938      2.00000
     56     -10.0953      2.00000
     57     -10.0440      2.00000
     58     -10.0220      2.00000
     59      -9.9005      2.00000
     60      -9.7500      2.00000
     61      -9.7466      2.00000
     62      -9.5642      2.00000
     63      -9.4406      2.00000
     64      -9.4081      2.00000
     65      -9.1949      2.00000
     66      -9.0463      2.00000
     67      -9.0358      2.00000
     68      -8.9008      2.00000
     69      -8.8845      2.00000
     70      -8.6881      2.00000
     71      -8.6375      2.00000
     72      -8.6354      2.00000
     73      -8.6240      2.00000
     74      -8.5798      2.00000
     75      -8.3743      2.00000
     76      -8.2527      2.00000
     77      -8.1648      2.00000
     78      -8.0440      2.00000
     79      -7.9900      2.00000
     80      -7.8796      2.00000
     81      -7.8575      2.00000
     82      -7.8545      2.00000
     83      -7.2224      2.00000
     84      -7.1831      2.00000
     85      -7.1250      2.00000
     86      -6.8826      2.00000
     87      -6.7225      2.00000
     88      -6.6133      2.00000
     89      -6.4596      2.00000
     90      -6.2817      2.00000
     91      -6.1133      2.00000
     92      -5.9165      2.00000
     93      -5.9107      2.00000
     94      -5.8973      2.00000
     95      -5.4623      2.00000
     96      -5.4239      2.00000
     97      -5.1241      2.00000
     98      -5.0139      2.00000
     99      -4.9808      2.00000
    100      -4.9570      2.00000
    101      -3.7431      2.00000
    102      -3.4531      2.00000
    103      -3.2861      2.00000
    104      -2.3863      0.00000
    105      -2.2212      0.00000
    106      -0.9280      0.00000
    107      -0.8813      0.00000
    108      -0.8667      0.00000
    109      -0.5377      0.00000
    110      -0.2622      0.00000
    111      -0.2107      0.00000
    112       0.2520      0.00000
    113       0.2587      0.00000
    114       0.2611      0.00000
    115       0.6018      0.00000
    116       0.7951      0.00000
    117       0.9500      0.00000
    118       0.9774      0.00000
    119       1.0603      0.00000
    120       1.7330      0.00000
    121       1.7500      0.00000
    122       1.7774      0.00000
    123       1.8280      0.00000
    124       2.1130      0.00000
    125       2.1177      0.00000
    126       2.1221      0.00000
    127       2.2481      0.00000
    128       2.2501      0.00000
    129       2.3656      0.00000
    130       2.9994      0.00000
    131       3.0133      0.00000
    132       3.0365      0.00000


--------------------------------------------------------------------------------------------------------


 soft charge-density along one line, spin component           1
         0         1         2         3         4         5         6         7         8         9
 total charge-density along one line
 
 pseudopotential strength for first ion, spin component:           1
 10.222  13.594   0.000  -0.000   0.000  -0.000   0.000  -0.000
 13.594  18.076   0.000  -0.000   0.000  -0.000   0.000  -0.000
  0.000   0.000  -4.352  -0.000  -0.000   8.513   0.000   0.000
 -0.000  -0.000  -0.000  -4.344  -0.000   0.000   8.502   0.000
  0.000   0.000  -0.000  -0.000  -4.352   0.000   0.000   8.513
 -0.000  -0.000   8.513   0.000   0.000 -18.786  -0.000  -0.000
  0.000   0.000   0.000   8.502   0.000  -0.000 -18.776  -0.000
 -0.000  -0.000   0.000   0.000   8.513  -0.000  -0.000 -18.787
 total augmentation occupancy for first ion, spin component:           1
  8.359  -3.741   0.001   0.000   0.003   0.000   0.000   0.001
 -3.741   1.730  -0.001  -0.000  -0.003  -0.000   0.000  -0.000
  0.001  -0.001   1.840  -0.000  -0.001   0.174   0.000   0.000
  0.000  -0.000  -0.000   1.223  -0.000   0.000   0.078   0.000
  0.003  -0.003  -0.001  -0.000   1.839   0.000   0.000   0.174
  0.000  -0.000   0.174   0.000   0.000   0.018   0.000   0.000
  0.000   0.000   0.000   0.078   0.000   0.000   0.005   0.000
  0.001  -0.000   0.000   0.000   0.174   0.000   0.000   0.018


------------------------ aborting loop because EDIFF is reached ----------------------------------------


    CHARGE:  cpu time    0.4078: real time    0.4079
    FORLOC:  cpu time    0.0268: real time    0.0268
    FORNL :  cpu time    1.9389: real time    1.9564
    STRESS:  cpu time    3.2525: real time    3.2964
    FORCOR:  cpu time    0.1202: real time    0.1202
    FORHAR:  cpu time    0.0484: real time    0.0485
    MIXING:  cpu time    0.0037: real time    0.0037
    OFIELD:  cpu time    0.0001: real time    0.0001

  FORCE on cell =-STRESS in cart. coord.  units (eV):
  Direction    XX          YY          ZZ          XY          YZ          ZX
  --------------------------------------------------------------------------------------
  Alpha Z    82.54348    82.54348    82.54348
  Ewald   41234.46730 41234.45239-47955.34223    -1.15275     0.00003     1.76201
  Hartree 40515.61948 40515.61793-39998.69383    -0.18724    -0.00020     0.52717
  E(xc)    -777.07568  -777.07584  -804.15844    -0.00260    -0.00001     0.00241
  Local  -83987.51126-83987.50388 85338.40009     1.15931    -0.00034    -2.00295
  n-local  -203.88329  -203.88319  -194.58722     0.00468    -0.00033    -0.03718
  augment   -12.41510   -12.41435   -13.90494    -0.00345     0.00007    -0.01764
  Kinetic  3163.65036  3163.65238  3595.70004    -0.03901     0.00203     0.06301
  Fock        0.00000     0.00000     0.00000     0.00000     0.00000     0.00000
  -------------------------------------------------------------------------------------
  Total      15.39528    15.38892    49.95696    -0.22106     0.00124     0.29683
  in kB       9.41299     9.40909    30.54469    -0.13516     0.00076     0.18149
  external pressure =       16.46 kB  Pullay stress =        0.00 kB


 VOLUME and BASIS-vectors are now :
 -----------------------------------------------------------------------------
  energy-cutoff  :      400.00
  volume of cell :     2620.42
      direct lattice vectors                 reciprocal lattice vectors
    12.300000191  0.000000000  0.000000000     0.081300812 -0.046939053  0.000000000
     6.150000804 10.652112223  0.000000000     0.000000000  0.093878095  0.000000000
     0.000000000  0.000000000 20.000000000     0.000000000  0.000000000  0.050000000

  length of vectors
    12.300000191 12.300000191 20.000000000     0.093878095  0.093878095  0.050000000


 FORCES acting on ions
    electron-ion (+dipol)            ewald-force                    non-local-force                 convergence-correction
 -----------------------------------------------------------------------------------------------
   -.148E+01 -.862E+00 0.278E+01   0.134E+01 0.784E+00 -.277E+01   0.861E-01 0.481E-01 -.581E-03   -.186E-03 0.671E-03 0.424E-03
   0.148E+01 -.849E+00 0.278E+01   -.135E+01 0.772E+00 -.277E+01   -.857E-01 0.506E-01 -.324E-03   0.179E-02 0.548E-03 -.155E-03
   0.370E+01 0.643E+01 0.379E+01   -.375E+01 -.650E+01 -.374E+01   -.116E+00 0.781E-01 -.712E-01   -.264E-03 0.230E-02 -.178E-03
   -.116E-01 0.129E+02 0.478E+01   0.109E-01 -.131E+02 -.491E+01   0.118E-02 0.143E-01 0.111E+00   -.121E-02 0.352E-02 -.359E-03
   -.370E+01 0.640E+01 0.379E+01   0.374E+01 -.647E+01 -.374E+01   0.112E+00 0.790E-01 -.703E-01   -.105E-02 0.238E-02 -.160E-06
   0.141E-01 0.171E+01 0.278E+01   -.149E-01 -.156E+01 -.277E+01   0.227E-02 -.989E-01 -.484E-03   0.104E-02 -.235E-03 0.910E-04
   0.117E+02 0.675E+01 0.486E+01   -.114E+02 -.657E+01 -.491E+01   0.111E+00 0.652E-01 0.530E-01   0.986E-03 0.241E-03 -.435E-03
   0.209E+02 0.363E+02 0.185E+02   -.214E+02 -.372E+02 -.189E+02   0.633E+00 0.648E+00 0.547E+00   0.193E-02 0.405E-02 -.791E-04
   -.209E+02 0.361E+02 0.185E+02   0.214E+02 -.370E+02 -.189E+02   -.655E+00 0.669E+00 0.535E+00   -.379E-02 0.396E-02 -.533E-03
   -.116E+02 0.671E+01 0.486E+01   0.113E+02 -.653E+01 -.491E+01   -.108E+00 0.616E-01 0.535E-01   -.161E-02 0.436E-03 -.374E-03
   0.744E+01 -.321E-02 0.379E+01   -.752E+01 -.113E-03 -.374E+01   0.103E-01 -.139E+00 -.711E-01   0.238E-02 -.168E-03 -.884E-04
   0.420E+02 -.303E-01 0.185E+02   -.430E+02 -.113E-03 -.189E+02   0.882E+00 0.230E+00 0.539E+00   0.477E-02 0.122E-02 -.936E-03
   0.298E+00 0.649E-02 0.291E+03   -.377E+00 -.846E-02 -.344E+03   0.173E+00 -.431E-03 0.731E+01   -.489E-02 -.996E-03 0.585E-03
   -.416E+02 -.749E-01 0.185E+02   0.427E+02 -.113E-03 -.189E+02   -.903E+00 0.228E+00 0.542E+00   -.464E-02 -.565E-03 -.107E-02
   -.738E+01 -.101E-01 0.379E+01   0.746E+01 -.113E-03 -.374E+01   -.126E-01 -.137E+00 -.703E-01   -.880E-03 0.312E-03 0.841E-04
   0.112E+02 -.645E+01 0.478E+01   -.114E+02 0.657E+01 -.491E+01   0.137E-01 -.719E-02 0.111E+00   0.290E-02 -.214E-02 -.658E-03
   0.209E+02 -.363E+02 0.185E+02   -.214E+02 0.372E+02 -.189E+02   0.245E+00 -.894E+00 0.533E+00   0.169E-02 -.478E-02 -.678E-03
   -.210E+02 -.361E+02 0.185E+02   0.214E+02 0.370E+02 -.189E+02   -.251E+00 -.881E+00 0.548E+00   -.280E-02 -.157E-02 -.627E-03
   -.111E+02 -.641E+01 0.478E+01   0.113E+02 0.653E+01 -.491E+01   -.112E-01 -.726E-02 0.111E+00   -.300E-02 -.694E-03 -.446E-03
   0.152E-01 -.148E+01 0.280E+01   -.149E-01 0.156E+01 -.277E+01   0.262E-02 -.868E-01 -.149E-01   0.781E-03 -.194E-02 0.287E-03
   0.371E+01 -.643E+01 0.379E+01   -.375E+01 0.650E+01 -.374E+01   0.125E+00 0.587E-01 -.706E-01   0.119E-02 -.287E-02 0.359E-04
   -.890E-02 -.135E+02 0.486E+01   0.109E-01 0.131E+02 -.491E+01   -.137E-02 -.126E+00 0.534E-01   0.269E-03 -.248E-02 -.247E-03
   -.371E+01 -.640E+01 0.379E+01   0.374E+01 0.647E+01 -.374E+01   -.126E+00 0.597E-01 -.708E-01   -.158E-02 -.488E-03 -.222E-03
   -.128E+01 0.746E+00 0.280E+01   0.134E+01 -.784E+00 -.277E+01   -.747E-01 0.444E-01 -.149E-01   -.100E-02 0.164E-02 0.167E-03
   0.129E+01 0.734E+00 0.280E+01   -.135E+01 -.772E+00 -.277E+01   0.761E-01 0.423E-01 -.148E-01   0.118E-02 0.401E-03 0.331E-03
   0.849E-02 -.461E-03 0.249E+01   -.746E-02 0.102E-03 -.248E+01   -.101E-03 0.425E-04 -.103E-01   0.131E-02 0.187E-03 0.109E-03
   0.532E+01 0.408E+01 0.339E+01   -.515E+01 -.431E+01 -.336E+01   -.716E-01 0.523E-02 -.239E-01   0.706E-03 0.150E-02 -.324E-03
   0.606E+01 0.172E+02 0.683E+01   -.580E+01 -.171E+02 -.646E+01   -.677E-01 0.161E+00 -.118E+00   0.839E-03 0.180E-02 -.272E-03
   -.609E+01 0.171E+02 0.683E+01   0.583E+01 -.170E+02 -.646E+01   0.654E-01 0.172E+00 -.117E+00   -.159E-02 0.335E-02 -.343E-03
   -.530E+01 0.406E+01 0.339E+01   0.513E+01 -.428E+01 -.336E+01   0.718E-01 0.364E-02 -.241E-01   -.612E-03 0.174E-02 0.115E-03
   0.620E+01 0.257E+01 0.339E+01   -.631E+01 -.231E+01 -.336E+01   -.318E-01 -.652E-01 -.240E-01   0.345E-02 0.626E-04 -.965E-04
   0.284E+02 0.164E+02 0.126E+02   -.287E+02 -.166E+02 -.130E+02   -.154E+00 -.902E-01 0.140E+00   0.259E-02 0.102E-02 -.483E-03
   -.412E+00 0.877E+02 0.581E+02   0.418E+00 -.922E+02 -.656E+02   -.399E-01 -.490E+00 0.325E+01   0.333E-03 0.621E-02 -.641E-03
   -.282E+02 0.163E+02 0.125E+02   0.285E+02 -.164E+02 -.130E+02   0.155E+00 -.878E-01 0.145E+00   -.381E-02 0.124E-02 -.529E-03
   -.616E+01 0.256E+01 0.339E+01   0.627E+01 -.230E+01 -.336E+01   0.325E-01 -.638E-01 -.239E-01   -.139E-02 -.432E-04 0.100E-03
   0.179E+02 -.332E+01 0.683E+01   -.177E+02 0.350E+01 -.646E+01   0.105E+00 -.137E+00 -.114E+00   0.262E-02 -.706E-03 -.630E-03
   0.764E+02 -.443E+02 0.581E+02   -.804E+02 0.467E+02 -.656E+02   -.493E+00 0.261E+00 0.317E+01   0.632E-02 -.313E-02 0.670E-03
   -.755E+02 -.434E+02 0.580E+02   0.793E+02 0.456E+02 -.656E+02   0.356E+00 0.228E+00 0.332E+01   -.454E-02 -.376E-02 -.124E-02
   -.178E+02 -.329E+01 0.684E+01   0.176E+02 0.348E+01 -.646E+01   -.118E+00 -.144E+00 -.121E+00   -.181E-02 -.514E-03 -.510E-03
   0.203E-01 -.604E+00 0.292E+01   -.205E-01 0.845E+00 -.289E+01   -.119E-02 -.155E+00 -.523E-01   0.109E-02 -.151E-02 0.107E-04
   0.118E+02 -.139E+02 0.683E+01   -.119E+02 0.136E+02 -.646E+01   0.175E+00 -.258E-01 -.113E+00   0.287E-02 -.289E-02 -.301E-03
   -.301E-01 -.327E+02 0.125E+02   0.488E-01 0.330E+02 -.130E+02   0.233E-02 0.178E+00 0.143E+00   -.136E-02 -.342E-02 -.767E-03
   -.118E+02 -.138E+02 0.684E+01   0.119E+02 0.135E+02 -.646E+01   -.180E+00 -.259E-01 -.122E+00   -.154E-02 -.102E-02 -.328E-03
   -.384E+01 -.222E+01 0.281E+01   0.377E+01 0.218E+01 -.285E+01   -.194E-01 -.117E-01 0.133E-01   -.184E-02 -.957E-03 0.251E-03
   0.385E+01 -.222E+01 0.281E+01   -.380E+01 0.219E+01 -.285E+01   0.197E-01 -.109E-01 0.118E-01   0.275E-02 -.217E-02 0.478E-04
   0.871E+00 -.664E+01 0.339E+01   -.115E+01 0.661E+01 -.336E+01   0.399E-01 0.604E-01 -.242E-01   0.127E-02 -.289E-02 0.124E-03
   -.875E+00 -.663E+01 0.339E+01   0.115E+01 0.659E+01 -.336E+01   -.395E-01 0.594E-01 -.238E-01   0.411E-04 -.139E-02 -.174E-03
   -.520E+00 0.312E+00 0.292E+01   0.730E+00 -.433E+00 -.289E+01   -.135E+00 0.774E-01 -.530E-01   -.163E-02 0.126E-02 -.105E-03
   -.186E-02 0.444E+01 0.281E+01   -.148E-03 -.437E+01 -.285E+01   0.938E-03 0.224E-01 0.125E-01   -.962E-03 0.283E-02 0.814E-04
   0.527E+00 0.293E+00 0.292E+01   -.734E+00 -.412E+00 -.289E+01   0.134E+00 0.783E-01 -.515E-01   0.117E-02 -.355E-03 0.155E-03
   -.133E+01 -.833E-03 -.720E+03   0.176E+01 -.435E-04 0.840E+03   -.118E+00 0.238E-02 -.631E+02   -.899E-02 -.419E-03 -.900E-02
 -----------------------------------------------------------------------------------------------
   0.190E+00 0.642E-03 0.433E+02   0.497E-13 -.505E-13 -.114E-12   -.181E+00 0.698E-03 -.433E+02   -.874E-02 -.121E-02 -.192E-01
 
 
 POSITION                                       TOTAL-FORCE (eV/Angst)
 -----------------------------------------------------------------------------------
      0.00000      0.00000      8.35995        -0.047179     -0.029090      0.008922
      2.46000      0.00000      8.35995         0.046826     -0.026017      0.009334
      4.92000      0.00000      8.35995        -0.158711      0.013962     -0.025815
      7.38000      0.00000      8.35995        -0.000790     -0.210954     -0.027015
      9.84000      0.00000      8.35995         0.158417      0.014763     -0.025269
      1.23000      2.13042      8.35995         0.002473      0.054641      0.009122
      3.69000      2.13042      8.35995         0.429615      0.247558     -0.000061
      6.15000      2.13042      8.35995         0.080614     -0.229029      0.165877
      8.61000      2.13042      8.35995        -0.081202     -0.197942      0.157773
     11.07000      2.13042      8.35995        -0.421233      0.243782      0.000336
      2.46000      4.26084      8.35995        -0.066296     -0.142113     -0.025145
      4.92000      4.26084      8.35995        -0.144658      0.200618      0.159151
      7.37476      4.26084      8.35143         0.088995     -0.003401    -45.666968
      9.84000      4.26084      8.35995         0.144411      0.152466      0.164774
     12.30000      4.26084      8.35995         0.067056     -0.147272     -0.025984
      3.69000      6.39127      8.35995        -0.176695      0.101558     -0.026765
      6.15000      6.39127      8.35995        -0.233064      0.016647      0.155124
      8.61000      6.39127      8.35995         0.217274      0.056200      0.168947
     11.07000      6.39127      8.35995         0.188564      0.109269     -0.027206
     13.53000      6.39127      8.35995         0.003705     -0.013069      0.017587
      4.92000      8.52169      8.35995         0.090254      0.128065     -0.024906
      7.38000      8.52169      8.35995         0.000842     -0.490812      0.000082
      9.84000      8.52169      8.35995        -0.093642      0.131931     -0.026226
     12.30000      8.52169      8.35995        -0.011045      0.008279      0.017764
     14.76000      8.52169      8.35995         0.011720      0.004564      0.017479
      1.23000      0.71014      8.36012         0.002234     -0.000133     -0.006156
      3.69000      0.71014      8.36012         0.097745     -0.218507      0.009992
      6.15000      0.71014      8.36012         0.193616      0.252191      0.257271
      8.61000      0.71014      8.36012        -0.198657      0.253385      0.256911
     11.07000      0.71014      8.36012        -0.097622     -0.213484      0.010080
      2.46000      2.84056      8.36012        -0.141269      0.192452      0.010117
      4.92000      2.84056      8.36012        -0.431372     -0.260008     -0.354492
      7.38000      2.84056      8.36012        -0.034166     -4.983665     -4.305627
      9.84000      2.84056      8.36012         0.437619     -0.241101     -0.357612
     12.30000      2.84056      8.36012         0.135575      0.192506      0.009877
      3.69000      4.97099      8.36012         0.311161      0.044741      0.256540
      6.15000      4.97099      8.36012        -4.489271      2.572422     -4.322521
      8.61000      4.97099      8.36012         4.145969      2.414042     -4.287378
     11.07000      4.97099      8.36012        -0.323199      0.042889      0.257662
     13.53000      4.97099      8.36012        -0.000221      0.083731     -0.021840
      4.92000      7.10141      8.36012         0.116009     -0.294153      0.256251
      7.38000      7.10141      8.36012         0.019706      0.501678     -0.356019
      9.84000      7.10141      8.36012        -0.124922     -0.298421      0.257803
     12.30000      7.10141      8.36012        -0.089888     -0.050685     -0.026890
     14.76000      7.10141      8.36012         0.076469     -0.045450     -0.026408
      6.15000      9.23183      8.36012        -0.234858      0.024859      0.010155
      8.61000      9.23183      8.36012         0.236594      0.022342      0.009856
     11.07000      9.23183      8.36012         0.073085     -0.042260     -0.021591
     13.53000      9.23183      8.36012        -0.002043      0.095930     -0.026642
     15.99000      9.23183      8.36012        -0.071504     -0.040993     -0.022090
      7.38000      4.26084      9.36012         0.296956      0.001086     57.381839
 -----------------------------------------------------------------------------------
    total drift:                                0.000658      0.000128      0.005388


--------------------------------------------------------------------------------------------------------



  FREE ENERGIE OF THE ION-ELECTRON SYSTEM (eV)
  ---------------------------------------------------
  free  energy   TOTEN  =      -454.73983198 eV

  energy  without entropy=     -454.73975288  energy(sigma->0) =     -454.73979243
 


--------------------------------------------------------------------------------------------------------


    POTLOK:  cpu time    0.1783: real time    0.1783


--------------------------------------------------------------------------------------------------------


 stress matrix after NEB project (eV)
     15.39528     -0.22106      0.29683
     -0.22106     15.38892      0.00124
      0.29683      0.00124     49.95696
  FORCES: max atom, RMS    57.382607   10.396557
  FORCE total and by dimension   74.246271   57.381839
  Stress total and by dimension   54.495918   49.956957
     LOOP+:  cpu time   42.8888: real time   43.7921
    4ORBIT:  cpu time    0.0000: real time    0.0000

 total amount of memory used by VASP MPI-rank0    90113. kBytes
=======================================================================

   base      :      30000. kBytes
   nonl-proj :       8674. kBytes
   fftplans  :      26248. kBytes
   grid      :      14579. kBytes
   one-center:         21. kBytes
   wavefun   :      10591. kBytes
 
  
  
 General timing and accounting informations for this job:
 ========================================================
  
                  Total CPU time used (sec):       50.662
                            User time (sec):       46.865
                          System time (sec):        3.797
                         Elapsed time (sec):       51.806
  
                   Maximum memory used (kb):      361580.
                   Average memory used (kb):           0.
  
                          Minor page faults:       111042
                          Major page faults:            0
                 Voluntary context switches:         1077
