  51  51   0   0
  0.5138078E+02  0.1230000E-08  0.1230000E-08  0.2000000E-08  0.5000000E-15
  1.000000000000000E-004
  CAR 
                                         
      5.97393977    -33.53503556  301     -3.01716096      1.00000000
    -33.535  0.0000E+00  0.0000E+00
    -33.403  0.0000E+00  0.0000E+00
    -33.272  0.0000E+00  0.0000E+00
    -33.140  0.0000E+00  0.0000E+00
    -33.008  0.0000E+00  0.0000E+00
    -32.877  0.0000E+00  0.0000E+00
    -32.745  0.0000E+00  0.0000E+00
    -32.613  0.0000E+00  0.0000E+00
    -32.481  0.0000E+00  0.0000E+00
    -32.350  0.0000E+00  0.0000E+00
    -32.218  0.0000E+00  0.0000E+00
    -32.086  0.0000E+00  0.0000E+00
    -31.955  0.8223E-08  0.1083E-08
    -31.823  0.1344E+00  0.1770E-01
    -31.691  0.1372E+02  0.1824E+01
    -31.560  0.1336E+01  0.2000E+01
    -31.428  0.2894E-05  0.2000E+01
    -31.296  0.0000E+00  0.2000E+01
    -31.164  0.0000E+00  0.2000E+01
    -31.033  0.0000E+00  0.2000E+01
    -30.901  0.0000E+00  0.2000E+01
    -30.769  0.0000E+00  0.2000E+01
    -30.638  0.0000E+00  0.2000E+01
    -30.506  0.0000E+00  0.2000E+01
    -30.374  0.0000E+00  0.2000E+01
    -30.243  0.0000E+00  0.2000E+01
    -30.111  0.0000E+00  0.2000E+01
    -29.979  0.0000E+00  0.2000E+01
    -29.848  0.0000E+00  0.2000E+01
    -29.716  0.0000E+00  0.2000E+01
    -29.584  0.0000E+00  0.2000E+01
    -29.452  0.0000E+00  0.2000E+01
    -29.321  0.0000E+00  0.2000E+01
    -29.189  0.0000E+00  0.2000E+01
    -29.057  0.0000E+00  0.2000E+01
    -28.926  0.0000E+00  0.2000E+01
    -28.794  0.0000E+00  0.2000E+01
    -28.662  0.0000E+00  0.2000E+01
    -28.531  0.0000E+00  0.2000E+01
    -28.399  0.0000E+00  0.2000E+01
    -28.267  0.0000E+00  0.2000E+01
    -28.135  0.0000E+00  0.2000E+01
    -28.004  0.0000E+00  0.2000E+01
    -27.872  0.0000E+00  0.2000E+01
    -27.740  0.0000E+00  0.2000E+01
    -27.609  0.0000E+00  0.2000E+01
    -27.477  0.0000E+00  0.2000E+01
    -27.345  0.0000E+00  0.2000E+01
    -27.214  0.0000E+00  0.2000E+01
    -27.082  0.0000E+00  0.2000E+01
    -26.950  0.0000E+00  0.2000E+01
    -26.819  0.0000E+00  0.2000E+01
    -26.687  0.0000E+00  0.2000E+01
    -26.555  0.0000E+00  0.2000E+01
    -26.423  0.0000E+00  0.2000E+01
    -26.292  0.0000E+00  0.2000E+01
    -26.160  0.0000E+00  0.2000E+01
    -26.028  0.0000E+00  0.2000E+01
    -25.897  0.0000E+00  0.2000E+01
    -25.765  0.0000E+00  0.2000E+01
    -25.633  0.0000E+00  0.2000E+01
    -25.502  0.0000E+00  0.2000E+01
    -25.370  0.0000E+00  0.2000E+01
    -25.238  0.0000E+00  0.2000E+01
    -25.106  0.0000E+00  0.2000E+01
    -24.975  0.0000E+00  0.2000E+01
    -24.843  0.0000E+00  0.2000E+01
    -24.711  0.0000E+00  0.2000E+01
    -24.580  0.0000E+00  0.2000E+01
    -24.448  0.0000E+00  0.2000E+01
    -24.316  0.0000E+00  0.2000E+01
    -24.185  0.0000E+00  0.2000E+01
    -24.053  0.0000E+00  0.2000E+01
    -23.921  0.0000E+00  0.2000E+01
    -23.789  0.0000E+00  0.2000E+01
    -23.658  0.0000E+00  0.2000E+01
    -23.526  0.0000E+00  0.2000E+01
    -23.394  0.0000E+00  0.2000E+01
    -23.263  0.0000E+00  0.2000E+01
    -23.131  0.0000E+00  0.2000E+01
    -22.999  0.0000E+00  0.2000E+01
    -22.868  0.0000E+00  0.2000E+01
    -22.736  0.0000E+00  0.2000E+01
    -22.604  0.0000E+00  0.2000E+01
    -22.473  0.9163E-08  0.2000E+01
    -22.341  0.3922E-01  0.2005E+01
    -22.209  0.4385E+01  0.2583E+01
    -22.077  0.9210E+01  0.3796E+01
    -21.946  0.4943E+01  0.4447E+01
    -21.814  0.1075E+02  0.5863E+01
    -21.682  0.5564E+01  0.6596E+01
    -21.551  0.7635E+01  0.7601E+01
    -21.419  0.1272E+02  0.9276E+01
    -21.287  0.5494E+01  0.9999E+01
    -21.156  0.3813E+01  0.1050E+02
    -21.024  0.9221E+01  0.1172E+02
    -20.892  0.1081E+02  0.1314E+02
    -20.760  0.9955E+01  0.1445E+02
    -20.629  0.8359E+01  0.1555E+02
    -20.497  0.2011E+00  0.1558E+02
    -20.365  0.1318E+02  0.1731E+02
    -20.234  0.3904E+01  0.1783E+02
    -20.102  0.1857E+02  0.2027E+02
    -19.970  0.1308E+01  0.2045E+02
    -19.839  0.3566E+01  0.2092E+02
    -19.707  0.1380E+02  0.2273E+02
    -19.575  0.8639E+01  0.2387E+02
    -19.444  0.6033E+01  0.2467E+02
    -19.312  0.6889E+01  0.2557E+02
    -19.180  0.1399E+02  0.2742E+02
    -19.048  0.7748E+01  0.2844E+02
    -18.917  0.4523E+01  0.2903E+02
    -18.785  0.5307E+01  0.2973E+02
    -18.653  0.5216E+01  0.3042E+02
    -18.522  0.1386E+02  0.3224E+02
    -18.390  0.1125E+02  0.3372E+02
    -18.258  0.8776E+01  0.3488E+02
    -18.127  0.4656E+01  0.3549E+02
    -17.995  0.1549E+02  0.3753E+02
    -17.863  0.4849E+01  0.3817E+02
    -17.731  0.3694E+01  0.3866E+02
    -17.600  0.5924E+01  0.3944E+02
    -17.468  0.1578E+02  0.4152E+02
    -17.336  0.3971E+01  0.4204E+02
    -17.205  0.2139E+02  0.4486E+02
    -17.073  0.6868E+01  0.4576E+02
    -16.941  0.3532E+01  0.4623E+02
    -16.810  0.9071E+01  0.4742E+02
    -16.678  0.3965E+01  0.4794E+02
    -16.546  0.8938E+01  0.4912E+02
    -16.414  0.8803E+01  0.5028E+02
    -16.283  0.3008E+01  0.5068E+02
    -16.151  0.9223E+01  0.5189E+02
    -16.019  0.5870E+01  0.5266E+02
    -15.888  0.1306E+02  0.5438E+02
    -15.756  0.1196E+02  0.5596E+02
    -15.624  0.2084E+01  0.5623E+02
    -15.493  0.4215E+01  0.5679E+02
    -15.361  0.2822E+01  0.5716E+02
    -15.229  0.1017E+02  0.5850E+02
    -15.098  0.2209E+02  0.6141E+02
    -14.966  0.4692E+01  0.6203E+02
    -14.834  0.1147E+02  0.6354E+02
    -14.702  0.1045E+02  0.6492E+02
    -14.571  0.6397E+01  0.6576E+02
    -14.439  0.1570E+02  0.6783E+02
    -14.307  0.4703E+01  0.6844E+02
    -14.176  0.1119E+01  0.6859E+02
    -14.044  0.4007E+01  0.6912E+02
    -13.912  0.1004E+02  0.7044E+02
    -13.781  0.1699E+02  0.7268E+02
    -13.649  0.1768E+02  0.7501E+02
    -13.517  0.1662E+01  0.7523E+02
    -13.385  0.2491E+01  0.7556E+02
    -13.254  0.4875E+00  0.7562E+02
    -13.122  0.1138E+02  0.7712E+02
    -12.990  0.1382E+02  0.7894E+02
    -12.859  0.2044E+02  0.8163E+02
    -12.727  0.1125E+01  0.8178E+02
    -12.595  0.4888E+01  0.8242E+02
    -12.464  0.1756E+02  0.8473E+02
    -12.332  0.1077E+02  0.8615E+02
    -12.200  0.3666E+01  0.8664E+02
    -12.068  0.3243E+01  0.8706E+02
    -11.937  0.1209E+02  0.8866E+02
    -11.805  0.3689E+01  0.8914E+02
    -11.673  0.1617E+02  0.9127E+02
    -11.542  0.1755E+02  0.9358E+02
    -11.410  0.1353E+02  0.9536E+02
    -11.278  0.8251E+01  0.9645E+02
    -11.147  0.5752E+01  0.9721E+02
    -11.015  0.7743E+01  0.9823E+02
    -10.883  0.1321E+02  0.9997E+02
    -10.752  0.1670E+02  0.1022E+03
    -10.620  0.2213E+01  0.1025E+03
    -10.488  0.2039E+02  0.1051E+03
    -10.356  0.3859E+01  0.1057E+03
    -10.225  0.2459E+02  0.1089E+03
    -10.093  0.2547E+02  0.1122E+03
     -9.961  0.1833E+02  0.1147E+03
     -9.830  0.1494E+02  0.1166E+03
     -9.698  0.1747E+02  0.1189E+03
     -9.566  0.2791E+02  0.1226E+03
     -9.435  0.2032E+02  0.1253E+03
     -9.303  0.2742E+02  0.1289E+03
     -9.171  0.2335E+02  0.1320E+03
     -9.039  0.2895E+02  0.1358E+03
     -8.908  0.1990E+02  0.1384E+03
     -8.776  0.1757E+02  0.1407E+03
     -8.644  0.2370E+02  0.1438E+03
     -8.513  0.1719E+02  0.1461E+03
     -8.381  0.1631E+02  0.1482E+03
     -8.249  0.1556E+02  0.1503E+03
     -8.118  0.1599E+02  0.1524E+03
     -7.986  0.2868E+02  0.1562E+03
     -7.854  0.1604E+02  0.1583E+03
     -7.723  0.1627E+02  0.1604E+03
     -7.591  0.8276E+01  0.1615E+03
     -7.459  0.1987E+01  0.1618E+03
     -7.327  0.1774E+02  0.1641E+03
     -7.196  0.3224E+02  0.1684E+03
     -7.064  0.1564E+02  0.1704E+03
     -6.932  0.4649E+01  0.1710E+03
     -6.801  0.1907E+02  0.1735E+03
     -6.669  0.1287E+02  0.1752E+03
     -6.537  0.1589E+02  0.1773E+03
     -6.406  0.6998E+01  0.1783E+03
     -6.274  0.1264E+02  0.1799E+03
     -6.142  0.1532E+02  0.1819E+03
     -6.010  0.1367E+02  0.1837E+03
     -5.879  0.2022E+02  0.1864E+03
     -5.747  0.7676E+01  0.1874E+03
     -5.615  0.1376E+02  0.1892E+03
     -5.484  0.3365E+01  0.1897E+03
     -5.352  0.7885E+01  0.1907E+03
     -5.220  0.8534E+01  0.1918E+03
     -5.089  0.1195E+02  0.1934E+03
     -4.957  0.1842E+02  0.1958E+03
     -4.825  0.1490E+02  0.1978E+03
     -4.693  0.3186E+01  0.1982E+03
     -4.562  0.7892E-01  0.1982E+03
     -4.430  0.5761E-04  0.1982E+03
     -4.298  0.3349E+01  0.1987E+03
     -4.167  0.1711E+02  0.2009E+03
     -4.035  0.4847E+01  0.2016E+03
     -3.903  0.7849E-03  0.2016E+03
     -3.772  0.4485E+00  0.2016E+03
     -3.640  0.2911E+01  0.2020E+03
     -3.508  0.3327E+00  0.2020E+03
     -3.377  0.4359E+01  0.2026E+03
     -3.245  0.1226E+02  0.2042E+03
     -3.113  0.1085E+02  0.2057E+03
     -2.981  0.2643E+01  0.2060E+03
     -2.850  0.2531E+01  0.2063E+03
     -2.718  0.9143E+01  0.2075E+03
     -2.586  0.8155E-01  0.2076E+03
     -2.455  0.9168E-01  0.2076E+03
     -2.323  0.3168E+01  0.2080E+03
     -2.191  0.2787E+01  0.2084E+03
     -2.060  0.7023E+00  0.2084E+03
     -1.928  0.9585E-05  0.2084E+03
     -1.796  0.2870E-07  0.2084E+03
     -1.664  0.1788E+00  0.2085E+03
     -1.533  0.9498E+01  0.2097E+03
     -1.401  0.1239E+02  0.2113E+03
     -1.269  0.3249E+01  0.2118E+03
     -1.138  0.1630E-03  0.2118E+03
     -1.006  0.1200E+01  0.2119E+03
     -0.874  0.1117E+02  0.2134E+03
     -0.743  0.2280E+02  0.2164E+03
     -0.611  0.1829E+02  0.2188E+03
     -0.479  0.5375E+01  0.2195E+03
     -0.347  0.2436E+00  0.2196E+03
     -0.216  0.4568E+01  0.2202E+03
     -0.084  0.1144E+02  0.2217E+03
      0.048  0.1037E+02  0.2230E+03
      0.179  0.7772E+00  0.2231E+03
      0.311  0.1638E+02  0.2253E+03
      0.443  0.7472E+01  0.2263E+03
      0.574  0.3179E+01  0.2267E+03
      0.706  0.1112E+02  0.2282E+03
      0.838  0.1678E+02  0.2304E+03
      0.969  0.6285E+01  0.2312E+03
      1.101  0.1113E+02  0.2327E+03
      1.233  0.1477E+02  0.2346E+03
      1.365  0.8617E+01  0.2357E+03
      1.496  0.1482E+02  0.2377E+03
      1.628  0.2296E+02  0.2407E+03
      1.760  0.1571E+02  0.2428E+03
      1.891  0.2731E+02  0.2464E+03
      2.023  0.8494E+01  0.2475E+03
      2.155  0.1593E+02  0.2496E+03
      2.286  0.2625E+02  0.2531E+03
      2.418  0.2878E+02  0.2568E+03
      2.550  0.7215E+01  0.2578E+03
      2.682  0.6393E+01  0.2586E+03
      2.813  0.9041E+01  0.2598E+03
      2.945  0.4978E+01  0.2605E+03
      3.077  0.9239E+01  0.2617E+03
      3.208  0.2802E+01  0.2621E+03
      3.340  0.4505E+01  0.2627E+03
      3.472  0.2645E-01  0.2627E+03
      3.603  0.3317E+01  0.2631E+03
      3.735  0.3431E+01  0.2636E+03
      3.867  0.1074E-02  0.2636E+03
      3.998  0.6387E-06  0.2636E+03
      4.130  0.2963E+00  0.2636E+03
      4.262  0.3049E+01  0.2640E+03
      4.394  0.2998E-01  0.2640E+03
      4.525  0.1842E-08  0.2640E+03
      4.657  0.0000E+00  0.2640E+03
      4.789  0.0000E+00  0.2640E+03
      4.920  0.0000E+00  0.2640E+03
      5.052  0.0000E+00  0.2640E+03
      5.184  0.0000E+00  0.2640E+03
      5.315  0.0000E+00  0.2640E+03
      5.447  0.0000E+00  0.2640E+03
      5.579  0.0000E+00  0.2640E+03
      5.711  0.0000E+00  0.2640E+03
      5.842  0.0000E+00  0.2640E+03
      5.974  0.0000E+00  0.2640E+03
