 vasp.5.4.4.18Apr17-6-g9f103f2a35 (build Aug 13 2022 23:40:43) complex          
  
 executed on             LinuxIFC date 2024.11.10  03:51:25
 running on   48 total cores
 distrk:  each k-point on   48 cores,    1 groups
 distr:  one band on NCORES_PER_BAND=   8 cores,    6 groups


--------------------------------------------------------------------------------------------------------


 INCAR:
 POTCAR:    PAW_PBE C 08Apr2002                   
 POTCAR:    PAW_PBE O 08Apr2002                   
 POTCAR:    PAW_PBE C 08Apr2002                   
   VRHFIN =C: s2p2                                                              
   LEXCH  = PE                                                                  
   EATOM  =   147.1560 eV,   10.8157 Ry                                         
                                                                                
   TITEL  = PAW_PBE C 08Apr2002                                                 
   LULTRA =        F    use ultrasoft PP ?                                      
   IUNSCR =        1    unscreen: 0-lin 1-nonlin 2-no                           
   RPACOR =    1.200    partial core radius                                     
   POMASS =   12.011; ZVAL   =    4.000    mass and valenz                      
   RCORE  =    1.500    outmost cutoff radius                                   
   RWIGS  =    1.630; RWIGS  =    0.863    wigner-seitz radius (au A)           
   ENMAX  =  400.000; ENMIN  =  300.000 eV                                      
   ICORE  =        2    local potential                                         
   LCOR   =        T    correct aug charges                                     
   LPAW   =        T    paw PP                                                  
   EAUG   =  644.873                                                            
   DEXC   =    0.000                                                            
   RMAX   =    1.529    core radius for proj-oper                               
   RAUG   =    1.300    factor for augmentation sphere                          
   RDEP   =    1.501    radius for radial grids                                 
   RDEPT  =    1.300    core radius for aug-charge                              
                                                                                
   Atomic configuration                                                         
    4 entries                                                                   
     n  l   j            E        occ.                                          
     1  0  0.50      -273.3789   2.0000                                         
     2  0  0.50       -13.7508   2.0000                                         
     2  1  0.50        -5.2854   2.0000                                         
     3  2  1.50        -5.4423   0.0000                                         
   Description                                                                  
     l       E           TYP  RCUT    TYP  RCUT                                 
     0    -13.7508458     23  1.200                                             
     0     -8.2022199     23  1.200                                             
     1     -5.2854383     23  1.500                                             
     1     34.0145650     23  1.500                                             
     2     -5.4423304      7  1.500                                             
  local pseudopotential read in
  partial core-charges read in
  partial kinetic energy density read in
  atomic valenz-charges read in
  non local Contribution for L=           0  read in
    real space projection operators read in
  non local Contribution for L=           0  read in
    real space projection operators read in
  non local Contribution for L=           1  read in
    real space projection operators read in
  non local Contribution for L=           1  read in
    real space projection operators read in
    PAW grid and wavefunctions read in
 
   number of l-projection  operators is LMAX  =           4
   number of lm-projection operators is LMMAX =           8
 
 POTCAR:    PAW_PBE O 08Apr2002                   
   VRHFIN =O: s2p4                                                              
   LEXCH  = PE                                                                  
   EATOM  =   432.3788 eV,   31.7789 Ry                                         
                                                                                
   TITEL  = PAW_PBE O 08Apr2002                                                 
   LULTRA =        F    use ultrasoft PP ?                                      
   IUNSCR =        1    unscreen: 0-lin 1-nonlin 2-no                           
   RPACOR =    1.200    partial core radius                                     
   POMASS =   16.000; ZVAL   =    6.000    mass and valenz                      
   RCORE  =    1.520    outmost cutoff radius                                   
   RWIGS  =    1.550; RWIGS  =    0.820    wigner-seitz radius (au A)           
   ENMAX  =  400.000; ENMIN  =  300.000 eV                                      
   ICORE  =        2    local potential                                         
   LCOR   =        T    correct aug charges                                     
   LPAW   =        T    paw PP                                                  
   EAUG   =  605.392                                                            
   DEXC   =    0.000                                                            
   RMAX   =    1.553    core radius for proj-oper                               
   RAUG   =    1.300    factor for augmentation sphere                          
   RDEP   =    1.550    radius for radial grids                                 
   RDEPT  =    1.329    core radius for aug-charge                              
                                                                                
   Atomic configuration                                                         
    4 entries                                                                   
     n  l   j            E        occ.                                          
     1  0  0.50      -514.6923   2.0000                                         
     2  0  0.50       -23.9615   2.0000                                         
     2  1  0.50        -9.0305   4.0000                                         
     3  2  1.50        -9.5241   0.0000                                         
   Description                                                                  
     l       E           TYP  RCUT    TYP  RCUT                                 
     0    -23.9615318     23  1.200                                             
     0     -9.5240782     23  1.200                                             
     1     -9.0304911     23  1.520                                             
     1      8.1634956     23  1.520                                             
     2     -9.5240782      7  1.500                                             
  local pseudopotential read in
  partial core-charges read in
  partial kinetic energy density read in
  kinetic energy density of atom read in
  atomic valenz-charges read in
  non local Contribution for L=           0  read in
    real space projection operators read in
  non local Contribution for L=           0  read in
    real space projection operators read in
  non local Contribution for L=           1  read in
    real space projection operators read in
  non local Contribution for L=           1  read in
    real space projection operators read in
    PAW grid and wavefunctions read in
 
   number of l-projection  operators is LMAX  =           4
   number of lm-projection operators is LMMAX =           8
 

 ----------------------------------------------------------------------------- 
|                                                                             |
|  ADVICE TO THIS USER RUNNING 'VASP/VAMP'   (HEAR YOUR MASTER'S VOICE ...):  |
|                                                                             |
|      You have a (more or less) 'large supercell' and for larger cells       |
|      it might be more efficient to use real space projection opertators     |
|      So try LREAL= Auto  in the INCAR   file.                               |
|      Mind:          For very  accurate calculation you might also keep the  |
|      reciprocal projection scheme          (i.e. LREAL=.FALSE.)             |
|                                                                             |
 ----------------------------------------------------------------------------- 

  PAW_PBE C 08Apr2002                   :
 energy of atom  1       EATOM= -147.1560
 kinetic energy error for atom=    0.0288 (will be added to EATOM!!)
  PAW_PBE O 08Apr2002                   :
 energy of atom  2       EATOM= -432.3788
 kinetic energy error for atom=    0.1156 (will be added to EATOM!!)
 
 
 POSCAR: generated by phonopy                    
  positions in direct lattice
  No initial velocities read in
 exchange correlation table for  LEXCH =        8
   RHO(1)=    0.500       N(1)  =     2000
   RHO(2)=  100.500       N(2)  =     4000

 VTST: version 3.2, (02/03/18)

 CHAIN: initializing optimizer
 
 OPT: Using VASP Dynamics algorithm
 CHAIN: Read ICHAIN            0
 
 POSCAR: generated by phonopy                    
  positions in direct lattice
  No initial velocities read in
 


--------------------------------------------------------------------------------------------------------


 ion  position               nearest neighbor table
   1  0.000  0.000  0.418-  26 1.42  30 1.42  46 1.42
   2  0.200  0.000  0.418-  27 1.42  26 1.42  47 1.42
   3  0.400  0.000  0.418-  28 1.42  27 1.42  48 1.42
   4  0.600  0.000  0.418-  29 1.42  28 1.42  49 1.42
   5  0.800  0.000  0.418-  30 1.42  29 1.42  50 1.42
   6  0.000  0.200  0.418-  31 1.42  35 1.42  26 1.42
   7  0.201  0.200  0.418-  32 1.41  27 1.42  31 1.43
   8  0.400  0.200  0.418-  33 1.42  32 1.42  28 1.42
   9  0.600  0.200  0.418-  34 1.42  33 1.42  29 1.42
  10  0.800  0.200  0.418-  35 1.42  34 1.42  30 1.42
  11  0.000  0.400  0.418-  36 1.42  40 1.42  31 1.42
  12  0.200  0.400  0.418-  37 1.42  36 1.42  32 1.42
  13  0.400  0.400  0.418-  51 1.00  38 1.42  37 1.42  33 1.42
  14  0.600  0.400  0.418-  39 1.42  38 1.42  34 1.42
  15  0.800  0.400  0.418-  40 1.42  39 1.42  35 1.42
  16  0.000  0.600  0.418-  41 1.42  45 1.42  36 1.42
  17  0.200  0.600  0.418-  42 1.42  41 1.42  37 1.42
  18  0.400  0.600  0.418-  43 1.42  42 1.42  38 1.42
  19  0.600  0.600  0.418-  44 1.42  43 1.42  39 1.42
  20  0.800  0.600  0.418-  45 1.42  44 1.42  40 1.42
  21  0.000  0.800  0.418-  46 1.42  50 1.42  41 1.42
  22  0.200  0.800  0.418-  47 1.42  46 1.42  42 1.42
  23  0.400  0.800  0.418-  48 1.42  47 1.42  43 1.42
  24  0.600  0.800  0.418-  49 1.42  48 1.42  44 1.42
  25  0.800  0.800  0.418-  50 1.42  49 1.42  45 1.42
  26  0.067  0.067  0.418-   1 1.42   2 1.42   6 1.42
  27  0.267  0.067  0.418-   2 1.42   3 1.42   7 1.42
  28  0.467  0.067  0.418-   3 1.42   4 1.42   8 1.42
  29  0.667  0.067  0.418-   4 1.42   5 1.42   9 1.42
  30  0.867  0.067  0.418-   5 1.42   1 1.42  10 1.42
  31  0.067  0.267  0.418-   6 1.42  11 1.42   7 1.43
  32  0.267  0.267  0.418-   7 1.41   8 1.42  12 1.42
  33  0.467  0.267  0.418-   8 1.42   9 1.42  13 1.42  51 1.74
  34  0.667  0.267  0.418-   9 1.42  10 1.42  14 1.42
  35  0.867  0.267  0.418-  10 1.42   6 1.42  15 1.42
  36  0.067  0.467  0.418-  11 1.42  12 1.42  16 1.42
  37  0.267  0.467  0.418-  12 1.42  13 1.42  17 1.42  51 1.74
  38  0.467  0.467  0.418-  13 1.42  14 1.42  18 1.42  51 1.74
  39  0.667  0.467  0.418-  14 1.42  15 1.42  19 1.42
  40  0.867  0.467  0.418-  15 1.42  11 1.42  20 1.42
  41  0.067  0.667  0.418-  16 1.42  17 1.42  21 1.42
  42  0.267  0.667  0.418-  17 1.42  18 1.42  22 1.42
  43  0.467  0.667  0.418-  18 1.42  19 1.42  23 1.42
  44  0.667  0.667  0.418-  19 1.42  20 1.42  24 1.42
  45  0.867  0.667  0.418-  20 1.42  16 1.42  25 1.42
  46  0.067  0.867  0.418-  21 1.42  22 1.42   1 1.42
  47  0.267  0.867  0.418-  22 1.42  23 1.42   2 1.42
  48  0.467  0.867  0.418-  23 1.42  24 1.42   3 1.42
  49  0.667  0.867  0.418-  24 1.42  25 1.42   4 1.42
  50  0.867  0.867  0.418-  25 1.42  21 1.42   5 1.42
  51  0.400  0.400  0.468-  13 1.00  38 1.74  37 1.74  33 1.74
 
  LATTYP: Found a hexagonal cell.
 ALAT       =    12.2999994816
 C/A-ratio  =     1.6260163287
  
  Lattice vectors:
  
 A1 = (   6.1499993860, -10.6521122225,   0.0000000000)
 A2 = ( -12.3000001905,   0.0000000000,   0.0000000000)
 A3 = (   0.0000000000,   0.0000000000, -20.0000000000)


Analysis of symmetry for initial positions (statically):
=====================================================================
 Subroutine PRICEL returns:
 Original cell was already a primitive cell.
 

 Routine SETGRP: Setting up the symmetry group for a 
 hexagonal supercell.


 Subroutine GETGRP returns: Found  1 space group operations
 (whereof  1 operations were pure point group operations)
 out of a pool of 24 trial point group operations.


The static configuration has the point symmetry C_1 .


Analysis of symmetry for dynamics (positions and initial velocities):
=====================================================================
 Subroutine PRICEL returns:
 Original cell was already a primitive cell.
 

 Routine SETGRP: Setting up the symmetry group for a 
 hexagonal supercell.


 Subroutine GETGRP returns: Found  1 space group operations
 (whereof  1 operations were pure point group operations)
 out of a pool of 24 trial point group operations.


The dynamic configuration has the point symmetry C_1 .


 Subroutine INISYM returns: Found  1 space group operations
 (whereof  1 operations are pure point group operations),
 and found     1 'primitive' translations

 
 
 KPOINTS: K-POINTS                                

Automatic generation of k-mesh.
Space group operators:
 irot       det(A)        alpha          n_x          n_y          n_z        tau_x        tau_y        tau_z
    1     1.000000     0.000000     1.000000     0.000000     0.000000     0.000000     0.000000     0.000000
 
 Subroutine IBZKPT returns following result:
 ===========================================
 
 Found      5 irreducible k-points:
 
 Following reciprocal coordinates:
            Coordinates               Weight
  0.000000  0.000000  0.000000      1.000000
  0.333333  0.000000  0.000000      2.000000
  0.000000  0.333333  0.000000      2.000000
  0.333333  0.333333  0.000000      2.000000
 -0.333333  0.333333  0.000000      2.000000
 
 Following cartesian coordinates:
            Coordinates               Weight
  0.000000  0.000000  0.000000      1.000000
  0.027100 -0.015646  0.000000      2.000000
  0.000000  0.031293  0.000000      2.000000
  0.027100  0.015646  0.000000      2.000000
 -0.027100  0.046939  0.000000      2.000000
 


--------------------------------------------------------------------------------------------------------




 Dimension of arrays:
   k-points           NKPTS =      5   k-points in BZ     NKDIM =      5   number of bands    NBANDS=    132
   number of dos      NEDOS =    301   number of ions     NIONS =     51
   non local maximal  LDIM  =      4   non local SUM 2l+1 LMDIM =      8
   total plane-waves  NPLWV = 896000
   max r-space proj   IRMAX =      1   max aug-charges    IRDMAX=  35685
   dimension x,y,z NGX =    80 NGY =   80 NGZ =  140
   dimension x,y,z NGXF=   160 NGYF=  160 NGZF=  280
   support grid    NGXF=   320 NGYF=  320 NGZF=  560
   ions per type =              50   1
   NGX,Y,Z   is equivalent  to a cutoff of  10.81, 10.81, 11.64 a.u.
   NGXF,Y,Z  is equivalent  to a cutoff of  21.63, 21.63, 23.27 a.u.

 SYSTEM =                                          
 POSCAR =  generated by phonopy                    

 Startparameter for this run:
   NWRITE =      2    write-flag & timer
   PREC   = accura    normal or accurate (medium, high low for compatibility)
   ISTART =      1    job   : 0-new  1-cont  2-samecut
   ICHARG =      1    charge: 1-file 2-atom 10-const
   ISPIN  =      1    spin polarized calculation?
   LNONCOLLINEAR =      F non collinear calculations
   LSORBIT =      F    spin-orbit coupling
   INIWAV =      1    electr: 0-lowe 1-rand  2-diag
   LASPH  =      F    aspherical Exc in radial PAW
   METAGGA=      F    non-selfconsistent MetaGGA calc.

 Electronic Relaxation 1
   ENCUT  =  400.0 eV  29.40 Ry    5.42 a.u.  20.06 20.06 32.61*2*pi/ulx,y,z
   ENINI  =  400.0     initial cutoff
   ENAUG  =  644.9 eV  augmentation charge cutoff
   NELM   =    300;   NELMIN=  2; NELMDL=  0     # of ELM steps 
   EDIFF  = 0.1E-04   stopping-criterion for ELM
   LREAL  =      F    real-space projection
   NLSPLINE    = F    spline interpolate recip. space projectors
   LCOMPAT=      F    compatible to vasp.4.4
   GGA_COMPAT  = T    GGA compatible to vasp.4.4-vasp.4.6
   LMAXPAW     = -100 max onsite density
   LMAXMIX     =    2 max onsite mixed and CHGCAR
   VOSKOWN=      0    Vosko Wilk Nusair interpolation
   ROPT   =    0.00000   0.00000
 Ionic relaxation
   EDIFFG = -.1E-02   stopping-criterion for IOM
   NSW    =      1    number of steps for IOM
   NBLOCK =      1;   KBLOCK =      1    inner block; outer block 
   IBRION =     -1    ionic relax: 0-MD 1-quasi-New 2-CG
   NFREE  =      0    steps in history (QN), initial steepest desc. (CG)
   ISIF   =      2    stress and relaxation
   IWAVPR =     10    prediction:  0-non 1-charg 2-wave 3-comb
   ISYM   =      2    0-nonsym 1-usesym 2-fastsym
   LCORR  =      T    Harris-Foulkes like correction to forces

   POTIM  = 0.5000    time-step for ionic-motion
   TEIN   =    0.0    initial temperature
   TEBEG  =    0.0;   TEEND  =   0.0 temperature during run
   SMASS  =  -3.00    Nose mass-parameter (am)
   estimated Nose-frequenzy (Omega)   =  0.10E-29 period in steps =****** mass=  -0.346E-26a.u.
   SCALEE = 1.0000    scale energy and forces
   NPACO  =    256;   APACO  = 16.0  distance and # of slots for P.C.
   PSTRESS=    0.0 pullay stress

  Mass of Ions in am
   POMASS =  12.01 16.00
  Ionic Valenz
   ZVAL   =   4.00  6.00
  Atomic Wigner-Seitz radii
   RWIGS  =  -1.00 -1.00
  virtual crystal weights 
   VCA    =   1.00  1.00
   NELECT =     206.0000    total number of electrons
   NUPDOWN=      -1.0000    fix difference up-down

 DOS related values:
   EMIN   =  10.00;   EMAX   =-10.00  energy-range for DOS
   EFERMI =   0.00
   ISMEAR =     0;   SIGMA  =   0.05  broadening in eV -4-tet -1-fermi 0-gaus

 Electronic relaxation 2 (details)
   IALGO  =     68    algorithm
   LDIAG  =      T    sub-space diagonalisation (order eigenvalues)
   LSUBROT=      F    optimize rotation matrix (better conditioning)
   TURBO    =      0    0=normal 1=particle mesh
   IRESTART =      0    0=no restart 2=restart with 2 vectors
   NREBOOT  =      0    no. of reboots
   NMIN     =      0    reboot dimension
   EREF     =   0.00    reference energy to select bands
   IMIX   =      4    mixing-type and parameters
     AMIX     =   0.40;   BMIX     =  1.00
     AMIX_MAG =   1.60;   BMIX_MAG =  1.00
     AMIN     =   0.10
     WC   =   100.;   INIMIX=   1;  MIXPRE=   1;  MAXMIX= -45

 Intra band minimization:
   WEIMIN = 0.0000     energy-eigenvalue tresh-hold
   EBREAK =  0.19E-07  absolut break condition
   DEPER  =   0.30     relativ break condition  

   TIME   =   0.40     timestep for ELM

  volume/ion in A,a.u.               =      51.38       346.73
  Fermi-wavevector in a.u.,A,eV,Ry     =   0.701305  1.325274  6.691736  0.491829
  Thomas-Fermi vector in A             =   1.785695
 
 Write flags
   LWAVE        =      F    write WAVECAR
   LDOWNSAMPLE  =      F    k-point downsampling of WAVECAR
   LCHARG       =      F    write CHGCAR
   LVTOT        =      F    write LOCPOT, total local potential
   LVHAR        =      F    write LOCPOT, Hartree potential only
   LELF         =      F    write electronic localiz. function (ELF)
   LORBIT       =      0    0 simple, 1 ext, 2 COOP (PROOUT), +10 PAW based schemes


 Dipole corrections
   LMONO  =      F    monopole corrections only (constant potential shift)
   LDIPOL =      F    correct potential (dipole corrections)
   IDIPOL =      0    1-x, 2-y, 3-z, 4-all directions 
   EPSILON=  1.0000000 bulk dielectric constant

 Exchange correlation treatment:
   GGA     =    --    GGA type
   LEXCH   =     8    internal setting for exchange type
   VOSKOWN=      0    Vosko Wilk Nusair interpolation
   LHFCALC =     F    Hartree Fock is set to
   LHFONE  =     F    Hartree Fock one center treatment
   AEXX    =    0.0000 exact exchange contribution

 Linear response parameters
   LEPSILON=     F    determine dielectric tensor
   LRPA    =     F    only Hartree local field effects (RPA)
   LNABLA  =     F    use nabla operator in PAW spheres
   LVEL    =     F    velocity operator in full k-point grid
   LINTERFAST=   F  fast interpolation
   KINTER  =     0    interpolate to denser k-point grid
   CSHIFT  =0.1000    complex shift for real part using Kramers Kronig
   OMEGAMAX=  -1.0    maximum frequency
   DEG_THRESHOLD= 0.2000000E-02 threshold for treating states as degnerate
   RTIME   =   -0.100 relaxation time in fs
  (WPLASMAI=    0.000 imaginary part of plasma frequency in eV, 0.658/RTIME)
   DFIELD  = 0.0000000 0.0000000 0.0000000 field for delta impulse in time
 
 Orbital magnetization related:
   ORBITALMAG=     F  switch on orbital magnetization
   LCHIMAG   =     F  perturbation theory with respect to B field
   DQ        =  0.001000  dq finite difference perturbation B field
   LLRAUG    =     F  two centre corrections for induced B field



--------------------------------------------------------------------------------------------------------


 Static calculation
 charge density and potential will be updated during run
 non-spin polarized calculation
 RMM-DIIS sequential band-by-band and
  variant of blocked Davidson during initial phase
 perform sub-space diagonalisation
    before iterative eigenvector-optimisation
 modified Broyden-mixing scheme, WC =      100.0
 initial mixing is a Kerker type mixing with AMIX =  0.4000 and BMIX =      1.0000
 Hartree-type preconditioning will be used
 using additional bands           29
 reciprocal scheme for non local part
 use partial core corrections
 calculate Harris-corrections to forces 
   (improved forces if not selfconsistent)
 use gradient corrections 
 use of overlap-Matrix (Vanderbilt PP)
 Gauss-broadening in eV      SIGMA  =   0.05


--------------------------------------------------------------------------------------------------------


  energy-cutoff  :      400.00
  volume of cell :     2620.42
      direct lattice vectors                 reciprocal lattice vectors
    12.300000191  0.000000000  0.000000000     0.081300812 -0.046939053  0.000000000
     6.150000804 10.652112223  0.000000000     0.000000000  0.093878095  0.000000000
     0.000000000  0.000000000 20.000000000     0.000000000  0.000000000  0.050000000

  length of vectors
    12.300000191 12.300000191 20.000000000     0.093878095  0.093878095  0.050000000


 
 old parameters found on file WAVECAR:
  energy-cutoff  :      400.00
  volume of cell :     2620.42
      direct lattice vectors                 reciprocal lattice vectors
    12.300000191  0.000000000  0.000000000     0.081300812 -0.046939053  0.000000000
     6.150000804 10.652112223  0.000000000     0.000000000  0.093878095  0.000000000
     0.000000000  0.000000000 20.000000000     0.000000000  0.000000000  0.050000000

  length of vectors

 
 k-points in units of 2pi/SCALE and weight: K-POINTS                                
   0.00000000  0.00000000  0.00000000       0.111
   0.02710027 -0.01564635  0.00000000       0.222
   0.00000000  0.03129270  0.00000000       0.222
   0.02710027  0.01564635  0.00000000       0.222
  -0.02710027  0.04693905  0.00000000       0.222
 
 k-points in reciprocal lattice and weights: K-POINTS                                
   0.00000000  0.00000000  0.00000000       0.111
   0.33333333  0.00000000  0.00000000       0.222
   0.00000000  0.33333333  0.00000000       0.222
   0.33333333  0.33333333  0.00000000       0.222
  -0.33333333  0.33333333  0.00000000       0.222
 
 position of ions in fractional coordinates (direct lattice) 
   0.00000000  0.00000000  0.41799748
   0.20000000  0.00000000  0.41799748
   0.40000000  0.00000000  0.41799748
   0.60000000  0.00000000  0.41799748
   0.80000000  0.00000000  0.41799748
   0.00000000  0.20000000  0.41799748
   0.20081301  0.20000000  0.41799748
   0.40000000  0.20000000  0.41799748
   0.60000000  0.20000000  0.41799748
   0.80000000  0.20000000  0.41799748
   0.00000000  0.40000000  0.41799748
   0.20000000  0.40000000  0.41799748
   0.40000000  0.40000000  0.41799748
   0.60000000  0.40000000  0.41799748
   0.80000000  0.40000000  0.41799748
   0.00000000  0.60000000  0.41799748
   0.20000000  0.60000000  0.41799748
   0.40000000  0.60000000  0.41799748
   0.60000000  0.60000000  0.41799748
   0.80000000  0.60000000  0.41799748
   0.00000000  0.80000000  0.41799748
   0.20000000  0.80000000  0.41799748
   0.40000000  0.80000000  0.41799748
   0.60000000  0.80000000  0.41799748
   0.80000000  0.80000000  0.41799748
   0.06666667  0.06666660  0.41800609
   0.26666667  0.06666660  0.41800609
   0.46666667  0.06666660  0.41800609
   0.66666667  0.06666660  0.41800609
   0.86666667  0.06666660  0.41800609
   0.06666667  0.26666660  0.41800609
   0.26666667  0.26666660  0.41800609
   0.46666667  0.26666660  0.41800609
   0.66666667  0.26666660  0.41800609
   0.86666667  0.26666660  0.41800609
   0.06666667  0.46666660  0.41800609
   0.26666667  0.46666660  0.41800609
   0.46666667  0.46666660  0.41800609
   0.66666667  0.46666660  0.41800609
   0.86666667  0.46666660  0.41800609
   0.06666667  0.66666660  0.41800609
   0.26666667  0.66666660  0.41800609
   0.46666667  0.66666660  0.41800609
   0.66666667  0.66666660  0.41800609
   0.86666667  0.66666660  0.41800609
   0.06666667  0.86666660  0.41800609
   0.26666667  0.86666660  0.41800609
   0.46666667  0.86666660  0.41800609
   0.66666667  0.86666660  0.41800609
   0.86666667  0.86666660  0.41800609
   0.40000000  0.40000000  0.46800609
 
 position of ions in cartesian coordinates  (Angst):
   0.00000000  0.00000000  8.35994958
   2.46000004  0.00000000  8.35994958
   4.92000008  0.00000000  8.35994958
   7.38000011  0.00000000  8.35994958
   9.84000015  0.00000000  8.35994958
   1.23000016  2.13042244  8.35994958
   3.70000020  2.13042244  8.35994958
   6.15000024  2.13042244  8.35994958
   8.61000028  2.13042244  8.35994958
  11.07000031  2.13042244  8.35994958
   2.46000032  4.26084489  8.35994958
   4.92000036  4.26084489  8.35994958
   7.38000040  4.26084489  8.35994958
   9.84000044  4.26084489  8.35994958
  12.30000047  4.26084489  8.35994958
   3.69000048  6.39126733  8.35994958
   6.15000052  6.39126733  8.35994958
   8.61000056  6.39126733  8.35994958
  11.07000060  6.39126733  8.35994958
  13.53000064  6.39126733  8.35994958
   4.92000064  8.52168978  8.35994958
   7.38000068  8.52168978  8.35994958
   9.84000072  8.52168978  8.35994958
  12.30000076  8.52168978  8.35994958
  14.76000080  8.52168978  8.35994958
   1.22999970  0.71014014  8.36012184
   3.68999974  0.71014014  8.36012184
   6.14999977  0.71014014  8.36012184
   8.60999981  0.71014014  8.36012184
  11.06999985  0.71014014  8.36012184
   2.45999986  2.84056258  8.36012184
   4.91999990  2.84056258  8.36012184
   7.37999994  2.84056258  8.36012184
   9.83999997  2.84056258  8.36012184
  12.30000001  2.84056258  8.36012184
   3.69000002  4.97098503  8.36012184
   6.15000006  4.97098503  8.36012184
   8.61000010  4.97098503  8.36012184
  11.07000013  4.97098503  8.36012184
  13.53000017  4.97098503  8.36012184
   4.92000018  7.10140747  8.36012184
   7.38000022  7.10140747  8.36012184
   9.84000026  7.10140747  8.36012184
  12.30000030  7.10140747  8.36012184
  14.76000033  7.10140747  8.36012184
   6.15000034  9.23182991  8.36012184
   8.61000038  9.23182991  8.36012184
  11.07000042  9.23182991  8.36012184
  13.53000046  9.23182991  8.36012184
  15.99000049  9.23182991  8.36012184
   7.38000040  4.26084489  9.36012184
 


--------------------------------------------------------------------------------------------------------


 k-point  1 :   0.0000 0.0000 0.0000  plane waves:   47639
 k-point  2 :   0.3333 0.0000 0.0000  plane waves:   47601
 k-point  3 :   0.0000 0.3333 0.0000  plane waves:   47601
 k-point  4 :   0.3333 0.3333 0.0000  plane waves:   47601
 k-point  5 :  -0.3333 0.3333 0.0000  plane waves:   47598

 maximum and minimum number of plane-waves per node :      5975     5928

 maximum number of plane-waves:     47639
 maximum index in each direction: 
   IXMAX=   20   IYMAX=   20   IZMAX=   32
   IXMIN=  -20   IYMIN=  -20   IZMIN=  -32


 parallel 3D FFT for wavefunctions:
    minimum data exchange during FFTs selected (reduces bandwidth)
 parallel 3D FFT for charge:
    minimum data exchange during FFTs selected (reduces bandwidth)


 total amount of memory used by VASP MPI-rank0    90113. kBytes
=======================================================================

   base      :      30000. kBytes
   nonl-proj :       8674. kBytes
   fftplans  :      26248. kBytes
   grid      :      14579. kBytes
   one-center:         21. kBytes
   wavefun   :      10591. kBytes
 
     INWAV:  cpu time    0.8117: real time    0.8123
 Broyden mixing: mesh for mixing (old mesh)
   NGX = 41   NGY = 41   NGZ = 65
  (NGX  =160   NGY  =160   NGZ  =280)
  gives a total of 109265 points

 initial charge density was supplied:
 number of electron     206.0000000 magnetization 
 keeping initial charge density in first step


--------------------------------------------------------------------------------------------------------


 Maximum index for augmentation-charges         1119 (set IRDMAX)


--------------------------------------------------------------------------------------------------------


 First call to EWALD:  gamma=   0.129
 Maximum number of real-space cells 3x 3x 2
 Maximum number of reciprocal cells 3x 3x 4

    FEWALD:  cpu time    0.0016: real time    0.0029


--------------------------------------- Iteration      1(   1)  ---------------------------------------


    POTLOK:  cpu time    0.1085: real time    0.1167
    SETDIJ:  cpu time    0.0824: real time    0.0843
     EDDAV:  cpu time    4.1203: real time    4.1234
       DOS:  cpu time    0.0009: real time    0.0009
    CHARGE:  cpu time    0.3918: real time    0.3919
    MIXING:  cpu time    0.0053: real time    0.0054
    --------------------------------------------
      LOOP:  cpu time    4.7092: real time    4.7225

 eigenvalue-minimisations  :  1356
 total energy-change (2. order) :-0.4532975E+03  (-0.2841170E+02)
 number of electron     206.0000000 magnetization 
 augmentation part        5.5092505 magnetization 

 Broyden mixing:
  rms(total) = 0.49969E-01    rms(broyden)= 0.49939E-01
  rms(prec ) = 0.51464E-01
  weight for this iteration     100.00

 Free energy of the ion-electron system (eV)
  ---------------------------------------------------
  alpha Z        PSCENC =        82.54348252
  Ewald energy   TEWEN  =     34516.66480694
  -Hartree energ DENC   =    -41034.97041414
  -exchange      EXHF   =         0.00000000
  -V(xc)+E(xc)   XCENC  =       721.38021229
  PAW double counting   =     22781.19595426   -22817.52509957
  entropy T*S    EENTRO =        -0.00054391
  eigenvalues    EBANDS =     -2491.21030251
  atomic energy  EATOM  =      7788.62438962
  Solvation  Ediel_sol  =         0.00000000
  ---------------------------------------------------
  free energy    TOTEN  =      -453.29751451 eV

  energy without entropy =     -453.29697060  energy(sigma->0) =     -453.29724255


--------------------------------------------------------------------------------------------------------




--------------------------------------- Iteration      1(   2)  ---------------------------------------


    POTLOK:  cpu time    0.0991: real time    0.0997
    SETDIJ:  cpu time    0.0799: real time    0.0823
    EDDIAG:  cpu time    0.8812: real time    0.8817
  RMM-DIIS:  cpu time    3.7499: real time    3.7514
    ORTHCH:  cpu time    0.0408: real time    0.0408
       DOS:  cpu time    0.0004: real time    0.0004
    CHARGE:  cpu time    0.3851: real time    0.3852
    MIXING:  cpu time    0.0053: real time    0.0054
    --------------------------------------------
      LOOP:  cpu time    5.2418: real time    5.2469

 eigenvalue-minimisations  :  1416
 total energy-change (2. order) :-0.9878698E+00  (-0.9903614E+00)
 number of electron     206.0000000 magnetization 
 augmentation part        5.5409261 magnetization 

 Broyden mixing:
  rms(total) = 0.20602E-01    rms(broyden)= 0.20545E-01
  rms(prec ) = 0.22014E-01
  weight for this iteration     100.00

 eigenvalues of (default mixing * dielectric matrix)
  average eigenvalue GAMMA=   0.7401
  0.7401

 Free energy of the ion-electron system (eV)
  ---------------------------------------------------
  alpha Z        PSCENC =        82.54348252
  Ewald energy   TEWEN  =     34516.66480694
  -Hartree energ DENC   =    -41032.43746423
  -exchange      EXHF   =         0.00000000
  -V(xc)+E(xc)   XCENC  =       721.27250614
  PAW double counting   =     22841.90861697   -22878.18621334
  entropy T*S    EENTRO =        -0.00009879
  eigenvalues    EBANDS =     -2494.67541016
  atomic energy  EATOM  =      7788.62438962
  Solvation  Ediel_sol  =         0.00000000
  ---------------------------------------------------
  free energy    TOTEN  =      -454.28538433 eV

  energy without entropy =     -454.28528554  energy(sigma->0) =     -454.28533493


--------------------------------------------------------------------------------------------------------




--------------------------------------- Iteration      1(   3)  ---------------------------------------


    POTLOK:  cpu time    0.1072: real time    0.1099
    SETDIJ:  cpu time    0.0803: real time    0.0820
    EDDIAG:  cpu time    0.8815: real time    0.8834
  RMM-DIIS:  cpu time    4.0992: real time    4.1015
    ORTHCH:  cpu time    0.0408: real time    0.0408
       DOS:  cpu time    0.0004: real time    0.0004
    CHARGE:  cpu time    0.3864: real time    0.3864
    MIXING:  cpu time    0.0043: real time    0.0043
    --------------------------------------------
      LOOP:  cpu time    5.6000: real time    5.6086

 eigenvalue-minimisations  :  1567
 total energy-change (2. order) :-0.5230199E-01  (-0.5858257E-01)
 number of electron     206.0000000 magnetization 
 augmentation part        5.5433838 magnetization 

 Broyden mixing:
  rms(total) = 0.15282E-01    rms(broyden)= 0.15267E-01
  rms(prec ) = 0.15835E-01
  weight for this iteration     100.00

 eigenvalues of (default mixing * dielectric matrix)
  average eigenvalue GAMMA=   0.6793
  0.6793  0.6793

 Free energy of the ion-electron system (eV)
  ---------------------------------------------------
  alpha Z        PSCENC =        82.54348252
  Ewald energy   TEWEN  =     34516.66480694
  -Hartree energ DENC   =    -41033.14186797
  -exchange      EXHF   =         0.00000000
  -V(xc)+E(xc)   XCENC  =       721.30531943
  PAW double counting   =     22830.72043658   -22867.01288876
  entropy T*S    EENTRO =        -0.00012960
  eigenvalues    EBANDS =     -2494.04123508
  atomic energy  EATOM  =      7788.62438962
  Solvation  Ediel_sol  =         0.00000000
  ---------------------------------------------------
  free energy    TOTEN  =      -454.33768631 eV

  energy without entropy =     -454.33755672  energy(sigma->0) =     -454.33762152


--------------------------------------------------------------------------------------------------------




--------------------------------------- Iteration      1(   4)  ---------------------------------------


    POTLOK:  cpu time    0.0976: real time    0.0987
    SETDIJ:  cpu time    0.0795: real time    0.0804
    EDDIAG:  cpu time    0.8835: real time    0.8839
  RMM-DIIS:  cpu time    4.0941: real time    4.0990
    ORTHCH:  cpu time    0.0407: real time    0.0409
       DOS:  cpu time    0.0004: real time    0.0004
    CHARGE:  cpu time    0.3853: real time    0.3857
    MIXING:  cpu time    0.0053: real time    0.0053
    --------------------------------------------
      LOOP:  cpu time    5.5863: real time    5.5941

 eigenvalue-minimisations  :  1580
 total energy-change (2. order) :-0.3876924E-02  (-0.4067175E-02)
 number of electron     206.0000000 magnetization 
 augmentation part        5.5459403 magnetization 

 Broyden mixing:
  rms(total) = 0.15130E-01    rms(broyden)= 0.15128E-01
  rms(prec ) = 0.15601E-01
  weight for this iteration     100.00

 eigenvalues of (default mixing * dielectric matrix)
  average eigenvalue GAMMA=   0.9826
  1.1986  1.1986  0.5505

 Free energy of the ion-electron system (eV)
  ---------------------------------------------------
  alpha Z        PSCENC =        82.54348252
  Ewald energy   TEWEN  =     34516.66480694
  -Hartree energ DENC   =    -41033.47964290
  -exchange      EXHF   =         0.00000000
  -V(xc)+E(xc)   XCENC  =       721.32051567
  PAW double counting   =     22822.04934525   -22858.34943138
  entropy T*S    EENTRO =        -0.00011215
  eigenvalues    EBANDS =     -2493.71491680
  atomic energy  EATOM  =      7788.62438962
  Solvation  Ediel_sol  =         0.00000000
  ---------------------------------------------------
  free energy    TOTEN  =      -454.34156324 eV

  energy without entropy =     -454.34145108  energy(sigma->0) =     -454.34150716


--------------------------------------------------------------------------------------------------------




--------------------------------------- Iteration      1(   5)  ---------------------------------------


    POTLOK:  cpu time    0.0981: real time    0.0984
    SETDIJ:  cpu time    0.0794: real time    0.0794
    EDDIAG:  cpu time    0.8752: real time    0.8757
  RMM-DIIS:  cpu time    4.0133: real time    4.0181
    ORTHCH:  cpu time    0.0416: real time    0.0416
       DOS:  cpu time    0.0003: real time    0.0003
    CHARGE:  cpu time    0.3853: real time    0.3853
    MIXING:  cpu time    0.0057: real time    0.0057
    --------------------------------------------
      LOOP:  cpu time    5.4989: real time    5.5045

 eigenvalue-minimisations  :  1518
 total energy-change (2. order) :-0.1100609E-03  (-0.3175700E-03)
 number of electron     206.0000000 magnetization 
 augmentation part        5.5449189 magnetization 

 Broyden mixing:
  rms(total) = 0.60886E-02    rms(broyden)= 0.60877E-02
  rms(prec ) = 0.62469E-02
  weight for this iteration     100.00

 eigenvalues of (default mixing * dielectric matrix)
  average eigenvalue GAMMA=   1.1606
  1.5174  1.5174  0.5655  1.0421

 Free energy of the ion-electron system (eV)
  ---------------------------------------------------
  alpha Z        PSCENC =        82.54348252
  Ewald energy   TEWEN  =     34516.66480694
  -Hartree energ DENC   =    -41034.38557025
  -exchange      EXHF   =         0.00000000
  -V(xc)+E(xc)   XCENC  =       721.35844388
  PAW double counting   =     22795.07912092   -22831.39883726
  entropy T*S    EENTRO =        -0.00011628
  eigenvalues    EBANDS =     -2492.82739339
  atomic energy  EATOM  =      7788.62438962
  Solvation  Ediel_sol  =         0.00000000
  ---------------------------------------------------
  free energy    TOTEN  =      -454.34167330 eV

  energy without entropy =     -454.34155702  energy(sigma->0) =     -454.34161516


--------------------------------------------------------------------------------------------------------




--------------------------------------- Iteration      1(   6)  ---------------------------------------


    POTLOK:  cpu time    0.0994: real time    0.1013
    SETDIJ:  cpu time    0.0796: real time    0.0809
    EDDIAG:  cpu time    0.8785: real time    0.8794
  RMM-DIIS:  cpu time    3.9876: real time    3.9895
    ORTHCH:  cpu time    0.0410: real time    0.0410
       DOS:  cpu time    0.0004: real time    0.0004
    CHARGE:  cpu time    0.3850: real time    0.3855
    MIXING:  cpu time    0.0047: real time    0.0047
    --------------------------------------------
      LOOP:  cpu time    5.4761: real time    5.4826

 eigenvalue-minimisations  :  1533
 total energy-change (2. order) :-0.2645183E-04  (-0.4843820E-04)
 number of electron     206.0000000 magnetization 
 augmentation part        5.5443021 magnetization 

 Broyden mixing:
  rms(total) = 0.14508E-02    rms(broyden)= 0.14490E-02
  rms(prec ) = 0.15080E-02
  weight for this iteration     100.00

 eigenvalues of (default mixing * dielectric matrix)
  average eigenvalue GAMMA=   1.2166
  2.1310  1.2181  1.2181  0.9512  0.5646

 Free energy of the ion-electron system (eV)
  ---------------------------------------------------
  alpha Z        PSCENC =        82.54348252
  Ewald energy   TEWEN  =     34516.66480694
  -Hartree energ DENC   =    -41035.04384228
  -exchange      EXHF   =         0.00000000
  -V(xc)+E(xc)   XCENC  =       721.38589073
  PAW double counting   =     22775.60248315   -22811.93544715
  entropy T*S    EENTRO =        -0.00011751
  eigenvalues    EBANDS =     -2492.18334578
  atomic energy  EATOM  =      7788.62438962
  Solvation  Ediel_sol  =         0.00000000
  ---------------------------------------------------
  free energy    TOTEN  =      -454.34169975 eV

  energy without entropy =     -454.34158225  energy(sigma->0) =     -454.34164100


--------------------------------------------------------------------------------------------------------




--------------------------------------- Iteration      1(   7)  ---------------------------------------


    POTLOK:  cpu time    0.1043: real time    0.1044
    SETDIJ:  cpu time    0.0795: real time    0.0795
    EDDIAG:  cpu time    0.8971: real time    0.8975
  RMM-DIIS:  cpu time    2.8776: real time    2.8787
    ORTHCH:  cpu time    0.0413: real time    0.0416
       DOS:  cpu time    0.0003: real time    0.0003
    --------------------------------------------
      LOOP:  cpu time    4.0001: real time    4.0020

 eigenvalue-minimisations  :  1027
 total energy-change (2. order) :-0.7478613E-05  (-0.2158855E-05)
 number of electron     206.0000000 magnetization 
 augmentation part        5.5443021 magnetization 

 Free energy of the ion-electron system (eV)
  ---------------------------------------------------
  alpha Z        PSCENC =        82.54348252
  Ewald energy   TEWEN  =     34516.66480694
  -Hartree energ DENC   =    -41035.05278245
  -exchange      EXHF   =         0.00000000
  -V(xc)+E(xc)   XCENC  =       721.38580313
  PAW double counting   =     22777.03755652   -22813.36976420
  entropy T*S    EENTRO =        -0.00011842
  eigenvalues    EBANDS =     -2492.17508088
  atomic energy  EATOM  =      7788.62438962
  Solvation  Ediel_sol  =         0.00000000
  ---------------------------------------------------
  free energy    TOTEN  =      -454.34170723 eV

  energy without entropy =     -454.34158881  energy(sigma->0) =     -454.34164802


--------------------------------------------------------------------------------------------------------




 average (electrostatic) potential at core
  the test charge radii are     0.6991  0.7215
  (the norm of the test charge is              1.0000)
       1 -58.2605       2 -58.2630       3 -58.2001       4 -58.0580       5 -58.2034
       6 -58.2613       7 -58.2744       8 -58.1306       9 -58.1318      10 -58.2756
      11 -58.2011      12 -58.1330      13 -60.6847      14 -58.1323      15 -58.2030
      16 -58.0578      17 -58.1320      18 -58.1326      19 -58.0575      20 -58.0648
      21 -58.2034      22 -58.2757      23 -58.2033      24 -58.0645      25 -58.0659
      26 -58.3829      27 -58.2923      28 -58.2202      29 -58.2203      30 -58.2922
      31 -58.2944      32 -58.3093      33 -58.8076      34 -58.3134      35 -58.2928
      36 -58.2211      37 -58.8091      38 -58.8114      39 -58.2215      40 -58.2219
      41 -58.2208      42 -58.3138      43 -58.2212      44 -58.1635      45 -58.1643
      46 -58.2926      47 -58.2936      48 -58.2212      49 -58.1637      50 -58.2239
      51 -81.5740
 
 
 
 E-fermi :  -3.0172     XC(G=0):  -2.2109     alpha+bet : -1.9409


 k-point     1 :       0.0000    0.0000    0.0000
  band No.  band energies     occupation 
      1     -31.7391      2.00000
      2     -22.2704      2.00000
      3     -21.5059      2.00000
      4     -21.5025      2.00000
      5     -21.3950      2.00000
      6     -21.3941      2.00000
      7     -21.3902      2.00000
      8     -20.8752      2.00000
      9     -19.8761      2.00000
     10     -19.8718      2.00000
     11     -19.5547      2.00000
     12     -19.5480      2.00000
     13     -19.5381      2.00000
     14     -19.1910      2.00000
     15     -18.9004      2.00000
     16     -18.8990      2.00000
     17     -18.6492      2.00000
     18     -18.6434      2.00000
     19     -18.6367      2.00000
     20     -17.8845      2.00000
     21     -17.0247      2.00000
     22     -17.0197      2.00000
     23     -16.4750      2.00000
     24     -16.4617      2.00000
     25     -16.4572      2.00000
     26     -16.0500      2.00000
     27     -15.9963      2.00000
     28     -15.9959      2.00000
     29     -15.4984      2.00000
     30     -15.4945      2.00000
     31     -15.4893      2.00000
     32     -15.0889      2.00000
     33     -14.6303      2.00000
     34     -14.6275      2.00000
     35     -14.1567      2.00000
     36     -14.1472      2.00000
     37     -14.1400      2.00000
     38     -13.9637      2.00000
     39     -12.9932      2.00000
     40     -12.9911      2.00000
     41     -12.0318      2.00000
     42     -11.7709      2.00000
     43     -11.7626      2.00000
     44     -11.7565      2.00000
     45     -11.6915      2.00000
     46     -11.6898      2.00000
     47     -11.6524      2.00000
     48     -11.6514      2.00000
     49     -11.6469      2.00000
     50     -11.6456      2.00000
     51     -10.8010      2.00000
     52     -10.7973      2.00000
     53     -10.4279      2.00000
     54     -10.3339      2.00000
     55     -10.2889      2.00000
     56     -10.2876      2.00000
     57     -10.2718      2.00000
     58     -10.0821      2.00000
     59      -9.6908      2.00000
     60      -9.6829      2.00000
     61      -9.3276      2.00000
     62      -9.3246      2.00000
     63      -9.2990      2.00000
     64      -9.2806      2.00000
     65      -9.2789      2.00000
     66      -9.0449      2.00000
     67      -9.0065      2.00000
     68      -9.0039      2.00000
     69      -8.9485      2.00000
     70      -8.9475      2.00000
     71      -8.9400      2.00000
     72      -8.9344      2.00000
     73      -8.9186      2.00000
     74      -8.9096      2.00000
     75      -8.8921      2.00000
     76      -8.4375      2.00000
     77      -7.8018      2.00000
     78      -7.7996      2.00000
     79      -7.3355      2.00000
     80      -7.3237      2.00000
     81      -7.3030      2.00000
     82      -7.3004      2.00000
     83      -7.2973      2.00000
     84      -7.2956      2.00000
     85      -7.1666      2.00000
     86      -7.1601      2.00000
     87      -7.1543      2.00000
     88      -6.7514      2.00000
     89      -6.5074      2.00000
     90      -6.5059      2.00000
     91      -6.2704      2.00000
     92      -6.2466      2.00000
     93      -6.2410      2.00000
     94      -5.9277      2.00000
     95      -5.9160      2.00000
     96      -5.1947      2.00000
     97      -4.7647      2.00000
     98      -4.7629      2.00000
     99      -4.2722      2.00000
    100      -4.2678      2.00000
    101      -4.2657      2.00000
    102      -3.2143      2.00000
    103      -3.2142      2.00000
    104      -2.9166      0.00445
    105      -1.4615      0.00000
    106      -1.4572      0.00000
    107      -1.4500      0.00000
    108      -0.9923      0.00000
    109      -0.9905      0.00000
    110      -0.5424      0.00000
    111       0.4131      0.00000
    112       0.4202      0.00000
    113       0.4238      0.00000
    114       0.5617      0.00000
    115       0.8417      0.00000
    116       0.8445      0.00000
    117       1.2927      0.00000
    118       1.3392      0.00000
    119       1.6811      0.00000
    120       1.8014      0.00000
    121       1.8020      0.00000
    122       1.8030      0.00000
    123       1.8258      0.00000
    124       1.8263      0.00000
    125       2.0308      0.00000
    126       2.1773      0.00000
    127       2.1795      0.00000
    128       2.1864      0.00000
    129       2.3422      0.00000
    130       2.3476      0.00000
    131       2.6177      0.00000
    132       2.6409      0.00000

 k-point     2 :       0.3333    0.0000    0.0000
  band No.  band energies     occupation 
      1     -31.7391      2.00000
      2     -22.1881      2.00000
      3     -21.8693      2.00000
      4     -21.6619      2.00000
      5     -21.4546      2.00000
      6     -21.0344      2.00000
      7     -20.8958      2.00000
      8     -20.7279      2.00000
      9     -20.4194      2.00000
     10     -20.1622      2.00000
     11     -19.7872      2.00000
     12     -19.6988      2.00000
     13     -19.3255      2.00000
     14     -19.2413      2.00000
     15     -19.0617      2.00000
     16     -18.5938      2.00000
     17     -18.4569      2.00000
     18     -18.1192      2.00000
     19     -18.0641      2.00000
     20     -17.5917      2.00000
     21     -17.4989      2.00000
     22     -17.3002      2.00000
     23     -17.2750      2.00000
     24     -16.8538      2.00000
     25     -16.6596      2.00000
     26     -16.1734      2.00000
     27     -15.9765      2.00000
     28     -15.8470      2.00000
     29     -15.2977      2.00000
     30     -15.1682      2.00000
     31     -15.1341      2.00000
     32     -14.8853      2.00000
     33     -14.7829      2.00000
     34     -14.4793      2.00000
     35     -14.4519      2.00000
     36     -13.7669      2.00000
     37     -13.7617      2.00000
     38     -13.1954      2.00000
     39     -13.0901      2.00000
     40     -12.9331      2.00000
     41     -12.9048      2.00000
     42     -12.5856      2.00000
     43     -12.5475      2.00000
     44     -12.3897      2.00000
     45     -12.0221      2.00000
     46     -11.6634      2.00000
     47     -11.4474      2.00000
     48     -11.2966      2.00000
     49     -11.1226      2.00000
     50     -10.9170      2.00000
     51     -10.8482      2.00000
     52     -10.5848      2.00000
     53     -10.5322      2.00000
     54     -10.2844      2.00000
     55     -10.2362      2.00000
     56     -10.1624      2.00000
     57     -10.0451      2.00000
     58      -9.8537      2.00000
     59      -9.8176      2.00000
     60      -9.6538      2.00000
     61      -9.6068      2.00000
     62      -9.5603      2.00000
     63      -9.5274      2.00000
     64      -9.3687      2.00000
     65      -9.3401      2.00000
     66      -9.2568      2.00000
     67      -9.1746      2.00000
     68      -9.0999      2.00000
     69      -9.0846      2.00000
     70      -8.8648      2.00000
     71      -8.7141      2.00000
     72      -8.6636      2.00000
     73      -8.5051      2.00000
     74      -8.4030      2.00000
     75      -8.2924      2.00000
     76      -8.1335      2.00000
     77      -8.0955      2.00000
     78      -8.0663      2.00000
     79      -7.9719      2.00000
     80      -7.8081      2.00000
     81      -7.6184      2.00000
     82      -7.3608      2.00000
     83      -7.3321      2.00000
     84      -7.2638      2.00000
     85      -7.1932      2.00000
     86      -6.9191      2.00000
     87      -6.8725      2.00000
     88      -6.6966      2.00000
     89      -6.5897      2.00000
     90      -6.3436      2.00000
     91      -6.1884      2.00000
     92      -6.0755      2.00000
     93      -5.9204      2.00000
     94      -5.7373      2.00000
     95      -5.6406      2.00000
     96      -5.3243      2.00000
     97      -5.1153      2.00000
     98      -4.9694      2.00000
     99      -4.9239      2.00000
    100      -4.2701      2.00000
    101      -4.1687      2.00000
    102      -3.3365      2.00000
    103      -3.1361      1.99923
    104      -2.8030      0.00000
    105      -1.5916      0.00000
    106      -1.4232      0.00000
    107      -0.8408      0.00000
    108      -0.8178      0.00000
    109      -0.7038      0.00000
    110      -0.6641      0.00000
    111      -0.1285      0.00000
    112      -0.0090      0.00000
    113       0.2914      0.00000
    114       0.7041      0.00000
    115       0.7300      0.00000
    116       1.0990      0.00000
    117       1.1751      0.00000
    118       1.3617      0.00000
    119       1.4622      0.00000
    120       1.5368      0.00000
    121       1.5695      0.00000
    122       1.6363      0.00000
    123       1.8304      0.00000
    124       1.9111      0.00000
    125       2.0377      0.00000
    126       2.2234      0.00000
    127       2.2712      0.00000
    128       2.3281      0.00000
    129       2.3390      0.00000
    130       2.3951      0.00000
    131       2.4572      0.00000
    132       2.7970      0.00000

 k-point     3 :       0.0000    0.3333    0.0000
  band No.  band energies     occupation 
      1     -31.7391      2.00000
      2     -22.1884      2.00000
      3     -21.8681      2.00000
      4     -21.6625      2.00000
      5     -21.4547      2.00000
      6     -21.0355      2.00000
      7     -20.8954      2.00000
      8     -20.7273      2.00000
      9     -20.4211      2.00000
     10     -20.1613      2.00000
     11     -19.7866      2.00000
     12     -19.6951      2.00000
     13     -19.3287      2.00000
     14     -19.2408      2.00000
     15     -19.0625      2.00000
     16     -18.5953      2.00000
     17     -18.4575      2.00000
     18     -18.1175      2.00000
     19     -18.0643      2.00000
     20     -17.5909      2.00000
     21     -17.5007      2.00000
     22     -17.3011      2.00000
     23     -17.2718      2.00000
     24     -16.8525      2.00000
     25     -16.6587      2.00000
     26     -16.1755      2.00000
     27     -15.9778      2.00000
     28     -15.8482      2.00000
     29     -15.2959      2.00000
     30     -15.1698      2.00000
     31     -15.1334      2.00000
     32     -14.8838      2.00000
     33     -14.7813      2.00000
     34     -14.4780      2.00000
     35     -14.4559      2.00000
     36     -13.7667      2.00000
     37     -13.7602      2.00000
     38     -13.1936      2.00000
     39     -13.0926      2.00000
     40     -12.9339      2.00000
     41     -12.9050      2.00000
     42     -12.5846      2.00000
     43     -12.5506      2.00000
     44     -12.3862      2.00000
     45     -12.0221      2.00000
     46     -11.6639      2.00000
     47     -11.4470      2.00000
     48     -11.2962      2.00000
     49     -11.1210      2.00000
     50     -10.9168      2.00000
     51     -10.8513      2.00000
     52     -10.5847      2.00000
     53     -10.5320      2.00000
     54     -10.2848      2.00000
     55     -10.2366      2.00000
     56     -10.1603      2.00000
     57     -10.0475      2.00000
     58      -9.8526      2.00000
     59      -9.8190      2.00000
     60      -9.6528      2.00000
     61      -9.6077      2.00000
     62      -9.5609      2.00000
     63      -9.5280      2.00000
     64      -9.3658      2.00000
     65      -9.3402      2.00000
     66      -9.2573      2.00000
     67      -9.1747      2.00000
     68      -9.1032      2.00000
     69      -9.0823      2.00000
     70      -8.8655      2.00000
     71      -8.7136      2.00000
     72      -8.6630      2.00000
     73      -8.5050      2.00000
     74      -8.4005      2.00000
     75      -8.2886      2.00000
     76      -8.1343      2.00000
     77      -8.0939      2.00000
     78      -8.0658      2.00000
     79      -7.9746      2.00000
     80      -7.8075      2.00000
     81      -7.6185      2.00000
     82      -7.3606      2.00000
     83      -7.3314      2.00000
     84      -7.2672      2.00000
     85      -7.1969      2.00000
     86      -6.9216      2.00000
     87      -6.8716      2.00000
     88      -6.6922      2.00000
     89      -6.5912      2.00000
     90      -6.3481      2.00000
     91      -6.1856      2.00000
     92      -6.0738      2.00000
     93      -5.9217      2.00000
     94      -5.7362      2.00000
     95      -5.6408      2.00000
     96      -5.3222      2.00000
     97      -5.1151      2.00000
     98      -4.9706      2.00000
     99      -4.9223      2.00000
    100      -4.2699      2.00000
    101      -4.1697      2.00000
    102      -3.3367      2.00000
    103      -3.1369      1.99929
    104      -2.8037      0.00000
    105      -1.5879      0.00000
    106      -1.4225      0.00000
    107      -0.8414      0.00000
    108      -0.8205      0.00000
    109      -0.7036      0.00000
    110      -0.6666      0.00000
    111      -0.1282      0.00000
    112      -0.0091      0.00000
    113       0.2937      0.00000
    114       0.7041      0.00000
    115       0.7283      0.00000
    116       1.0998      0.00000
    117       1.1767      0.00000
    118       1.3616      0.00000
    119       1.4630      0.00000
    120       1.5366      0.00000
    121       1.5709      0.00000
    122       1.6373      0.00000
    123       1.8313      0.00000
    124       1.9125      0.00000
    125       2.0390      0.00000
    126       2.2275      0.00000
    127       2.2744      0.00000
    128       2.3355      0.00000
    129       2.4263      0.00000
    130       2.7408      0.00000
    131       3.2540      0.00000
    132       3.6131      0.00000

 k-point     4 :       0.3333    0.3333    0.0000
  band No.  band energies     occupation 
      1     -31.7391      2.00000
      2     -22.1882      2.00000
      3     -21.8696      2.00000
      4     -21.6607      2.00000
      5     -21.4545      2.00000
      6     -21.0340      2.00000
      7     -20.9001      2.00000
      8     -20.7259      2.00000
      9     -20.4196      2.00000
     10     -20.1594      2.00000
     11     -19.7878      2.00000
     12     -19.6986      2.00000
     13     -19.3241      2.00000
     14     -19.2413      2.00000
     15     -19.0649      2.00000
     16     -18.5923      2.00000
     17     -18.4601      2.00000
     18     -18.1208      2.00000
     19     -18.0599      2.00000
     20     -17.5923      2.00000
     21     -17.4961      2.00000
     22     -17.2990      2.00000
     23     -17.2759      2.00000
     24     -16.8585      2.00000
     25     -16.6570      2.00000
     26     -16.1764      2.00000
     27     -15.9750      2.00000
     28     -15.8455      2.00000
     29     -15.2993      2.00000
     30     -15.1690      2.00000
     31     -15.1348      2.00000
     32     -14.8811      2.00000
     33     -14.7809      2.00000
     34     -14.4779      2.00000
     35     -14.4555      2.00000
     36     -13.7712      2.00000
     37     -13.7576      2.00000
     38     -13.1955      2.00000
     39     -13.0897      2.00000
     40     -12.9341      2.00000
     41     -12.9058      2.00000
     42     -12.5831      2.00000
     43     -12.5533      2.00000
     44     -12.3888      2.00000
     45     -12.0213      2.00000
     46     -11.6650      2.00000
     47     -11.4482      2.00000
     48     -11.2892      2.00000
     49     -11.1210      2.00000
     50     -10.9142      2.00000
     51     -10.8488      2.00000
     52     -10.5881      2.00000
     53     -10.5307      2.00000
     54     -10.2849      2.00000
     55     -10.2364      2.00000
     56     -10.1596      2.00000
     57     -10.0493      2.00000
     58      -9.8537      2.00000
     59      -9.8214      2.00000
     60      -9.6571      2.00000
     61      -9.6053      2.00000
     62      -9.5653      2.00000
     63      -9.5257      2.00000
     64      -9.3681      2.00000
     65      -9.3403      2.00000
     66      -9.2603      2.00000
     67      -9.1732      2.00000
     68      -9.0991      2.00000
     69      -9.0842      2.00000
     70      -8.8641      2.00000
     71      -8.7116      2.00000
     72      -8.6667      2.00000
     73      -8.5039      2.00000
     74      -8.3977      2.00000
     75      -8.2875      2.00000
     76      -8.1309      2.00000
     77      -8.0940      2.00000
     78      -8.0603      2.00000
     79      -7.9694      2.00000
     80      -7.8056      2.00000
     81      -7.6283      2.00000
     82      -7.3632      2.00000
     83      -7.3352      2.00000
     84      -7.2701      2.00000
     85      -7.1968      2.00000
     86      -6.9203      2.00000
     87      -6.8721      2.00000
     88      -6.6904      2.00000
     89      -6.5940      2.00000
     90      -6.3524      2.00000
     91      -6.1807      2.00000
     92      -6.0710      2.00000
     93      -5.9230      2.00000
     94      -5.7385      2.00000
     95      -5.6370      2.00000
     96      -5.3214      2.00000
     97      -5.1142      2.00000
     98      -4.9685      2.00000
     99      -4.9223      2.00000
    100      -4.2767      2.00000
    101      -4.1681      2.00000
    102      -3.3371      2.00000
    103      -3.1363      1.99925
    104      -2.8026      0.00000
    105      -1.5904      0.00000
    106      -1.4162      0.00000
    107      -0.8423      0.00000
    108      -0.8189      0.00000
    109      -0.7073      0.00000
    110      -0.6671      0.00000
    111      -0.1323      0.00000
    112      -0.0052      0.00000
    113       0.2933      0.00000
    114       0.7043      0.00000
    115       0.7276      0.00000
    116       1.0992      0.00000
    117       1.1749      0.00000
    118       1.3669      0.00000
    119       1.4640      0.00000
    120       1.5613      0.00000
    121       1.5788      0.00000
    122       1.7501      0.00000
    123       1.8317      0.00000
    124       2.1785      0.00000
    125       2.3351      0.00000
    126       2.3967      0.00000
    127       2.6165      0.00000
    128       2.7872      0.00000
    129       2.8444      0.00000
    130       3.2030      0.00000
    131       3.5952      0.00000
    132       4.1781      0.00000

 k-point     5 :      -0.3333    0.3333    0.0000
  band No.  band energies     occupation 
      1     -31.7392      2.00000
      2     -22.0791      2.00000
      3     -22.0076      2.00000
      4     -21.8024      2.00000
      5     -21.1710      2.00000
      6     -21.1519      2.00000
      7     -20.8673      2.00000
      8     -20.4106      2.00000
      9     -20.3404      2.00000
     10     -20.1725      2.00000
     11     -20.1489      2.00000
     12     -20.1425      2.00000
     13     -19.5650      2.00000
     14     -18.8291      2.00000
     15     -18.6739      2.00000
     16     -18.3680      2.00000
     17     -18.3502      2.00000
     18     -18.3359      2.00000
     19     -17.9304      2.00000
     20     -17.8060      2.00000
     21     -17.6002      2.00000
     22     -17.2599      2.00000
     23     -17.1513      2.00000
     24     -17.1187      2.00000
     25     -16.5467      2.00000
     26     -16.4389      2.00000
     27     -16.2845      2.00000
     28     -15.8064      2.00000
     29     -15.6265      2.00000
     30     -15.1747      2.00000
     31     -14.9686      2.00000
     32     -14.6522      2.00000
     33     -13.9663      2.00000
     34     -13.9383      2.00000
     35     -13.9230      2.00000
     36     -13.8727      2.00000
     37     -13.8607      2.00000
     38     -13.7907      2.00000
     39     -13.6752      2.00000
     40     -13.4945      2.00000
     41     -13.0378      2.00000
     42     -12.4749      2.00000
     43     -12.2528      2.00000
     44     -12.0718      2.00000
     45     -11.8241      2.00000
     46     -11.7727      2.00000
     47     -11.5662      2.00000
     48     -11.5408      2.00000
     49     -11.5236      2.00000
     50     -10.9293      2.00000
     51     -10.8197      2.00000
     52     -10.5309      2.00000
     53     -10.2048      2.00000
     54     -10.2012      2.00000
     55     -10.1931      2.00000
     56     -10.0938      2.00000
     57     -10.0519      2.00000
     58     -10.0220      2.00000
     59      -9.9027      2.00000
     60      -9.7517      2.00000
     61      -9.7491      2.00000
     62      -9.5656      2.00000
     63      -9.4410      2.00000
     64      -9.4070      2.00000
     65      -9.1951      2.00000
     66      -9.0460      2.00000
     67      -9.0318      2.00000
     68      -8.9017      2.00000
     69      -8.8811      2.00000
     70      -8.6882      2.00000
     71      -8.6412      2.00000
     72      -8.6336      2.00000
     73      -8.6237      2.00000
     74      -8.5833      2.00000
     75      -8.3755      2.00000
     76      -8.2523      2.00000
     77      -8.1676      2.00000
     78      -8.0332      2.00000
     79      -7.9849      2.00000
     80      -7.8805      2.00000
     81      -7.8578      2.00000
     82      -7.8540      2.00000
     83      -7.2190      2.00000
     84      -7.1850      2.00000
     85      -7.1265      2.00000
     86      -6.8868      2.00000
     87      -6.7209      2.00000
     88      -6.6177      2.00000
     89      -6.4559      2.00000
     90      -6.2679      2.00000
     91      -6.1024      2.00000
     92      -5.9143      2.00000
     93      -5.9108      2.00000
     94      -5.8969      2.00000
     95      -5.4545      2.00000
     96      -5.4249      2.00000
     97      -5.1216      2.00000
     98      -5.0149      2.00000
     99      -4.9785      2.00000
    100      -4.9583      2.00000
    101      -3.7323      2.00000
    102      -3.4617      2.00000
    103      -3.2794      2.00000
    104      -2.3866      0.00000
    105      -2.2200      0.00000
    106      -0.9294      0.00000
    107      -0.8838      0.00000
    108      -0.8663      0.00000
    109      -0.5383      0.00000
    110      -0.2592      0.00000
    111      -0.2111      0.00000
    112       0.2460      0.00000
    113       0.2588      0.00000
    114       0.2618      0.00000
    115       0.5992      0.00000
    116       0.7945      0.00000
    117       0.9483      0.00000
    118       0.9731      0.00000
    119       1.0609      0.00000
    120       1.7323      0.00000
    121       1.7449      0.00000
    122       1.7663      0.00000
    123       1.8237      0.00000
    124       2.1189      0.00000
    125       2.1232      0.00000
    126       2.1264      0.00000
    127       2.2454      0.00000
    128       2.2476      0.00000
    129       2.3611      0.00000
    130       3.0006      0.00000
    131       3.0119      0.00000
    132       3.0357      0.00000


--------------------------------------------------------------------------------------------------------


 soft charge-density along one line, spin component           1
         0         1         2         3         4         5         6         7         8         9
 total charge-density along one line
 
 pseudopotential strength for first ion, spin component:           1
 10.222  13.594   0.000  -0.000   0.000  -0.000   0.000  -0.000
 13.594  18.076   0.000  -0.000   0.000  -0.000   0.000  -0.000
  0.000   0.000  -4.352  -0.000  -0.000   8.513   0.000   0.000
 -0.000  -0.000  -0.000  -4.344  -0.000   0.000   8.502   0.000
  0.000   0.000  -0.000  -0.000  -4.352   0.000   0.000   8.513
 -0.000  -0.000   8.513   0.000   0.000 -18.787  -0.000  -0.000
  0.000   0.000   0.000   8.502   0.000  -0.000 -18.776  -0.000
 -0.000  -0.000   0.000   0.000   8.513  -0.000  -0.000 -18.787
 total augmentation occupancy for first ion, spin component:           1
  8.358  -3.741   0.001   0.000   0.003   0.000   0.000   0.001
 -3.741   1.730  -0.002  -0.000  -0.003  -0.000   0.000  -0.000
  0.001  -0.002   1.840  -0.000  -0.001   0.174   0.000   0.000
  0.000  -0.000  -0.000   1.223  -0.000   0.000   0.078   0.000
  0.003  -0.003  -0.001  -0.000   1.839   0.000   0.000   0.174
  0.000  -0.000   0.174   0.000   0.000   0.018   0.000   0.000
  0.000   0.000   0.000   0.078   0.000   0.000   0.005   0.000
  0.001  -0.000   0.000   0.000   0.174   0.000   0.000   0.018


------------------------ aborting loop because EDIFF is reached ----------------------------------------


    CHARGE:  cpu time    0.4009: real time    0.4009
    FORLOC:  cpu time    0.0275: real time    0.0275
    FORNL :  cpu time    1.9710: real time    1.9718
    STRESS:  cpu time    3.2735: real time    3.2748
    FORCOR:  cpu time    0.1208: real time    0.1208
    FORHAR:  cpu time    0.0484: real time    0.0484
    MIXING:  cpu time    0.0036: real time    0.0036
    OFIELD:  cpu time    0.0001: real time    0.0001

  FORCE on cell =-STRESS in cart. coord.  units (eV):
  Direction    XX          YY          ZZ          XY          YZ          ZX
  --------------------------------------------------------------------------------------
  Alpha Z    82.54348    82.54348    82.54348
  Ewald   41234.51137 41234.57881-47952.44604     2.33552     0.04984     0.05828
  Hartree 40516.67011 40516.73907-39998.55977     0.41280     0.04616     0.05263
  E(xc)    -777.15545  -777.15592  -804.23533     0.00697    -0.00004    -0.00003
  Local  -83988.82698-83988.95266 85337.32409    -2.31760    -0.09783    -0.11433
  n-local  -203.93605  -203.92987  -194.69410     0.01862    -0.00183    -0.00279
  augment   -12.38087   -12.38206   -14.04747    -0.00352     0.00034     0.00027
  Kinetic  3164.11505  3164.12526  3596.28152    -0.34903     0.00713     0.01564
  Fock        0.00000     0.00000     0.00000     0.00000     0.00000     0.00000
  -------------------------------------------------------------------------------------
  Total      15.54066    15.56610    52.16639     0.10377     0.00376     0.00967
  in kB       9.50187     9.51743    31.89558     0.06345     0.00230     0.00591
  external pressure =       16.97 kB  Pullay stress =        0.00 kB


 VOLUME and BASIS-vectors are now :
 -----------------------------------------------------------------------------
  energy-cutoff  :      400.00
  volume of cell :     2620.42
      direct lattice vectors                 reciprocal lattice vectors
    12.300000191  0.000000000  0.000000000     0.081300812 -0.046939053  0.000000000
     6.150000804 10.652112223  0.000000000     0.000000000  0.093878095  0.000000000
     0.000000000  0.000000000 20.000000000     0.000000000  0.000000000  0.050000000

  length of vectors
    12.300000191 12.300000191 20.000000000     0.093878095  0.093878095  0.050000000


 FORCES acting on ions
    electron-ion (+dipol)            ewald-force                    non-local-force                 convergence-correction
 -----------------------------------------------------------------------------------------------
   -.152E+01 -.890E+00 0.279E+01   0.139E+01 0.816E+00 -.278E+01   0.870E-01 0.501E-01 -.283E-03   -.409E-03 0.696E-03 0.706E-03
   0.148E+01 -.105E+01 0.279E+01   -.138E+01 0.979E+00 -.278E+01   -.653E-01 0.740E-01 -.282E-03   0.231E-02 -.138E-04 0.135E-04
   0.370E+01 0.662E+01 0.381E+01   -.378E+01 -.669E+01 -.377E+01   -.951E-01 0.527E-01 -.714E-01   -.110E-03 0.316E-02 0.175E-03
   -.409E-01 0.129E+02 0.480E+01   0.450E-01 -.131E+02 -.494E+01   0.623E-04 0.121E-01 0.112E+00   -.141E-02 0.428E-02 0.407E-04
   -.373E+01 0.642E+01 0.381E+01   0.377E+01 -.649E+01 -.377E+01   0.115E+00 0.757E-01 -.710E-01   -.174E-02 0.301E-02 0.451E-03
   -.296E+00 0.171E+01 0.279E+01   0.315E+00 -.156E+01 -.278E+01   0.261E-01 -.948E-01 -.980E-04   0.362E-03 -.521E-03 0.392E-03
   0.140E+02 0.681E+01 0.491E+01   -.140E+02 -.663E+01 -.496E+01   -.184E+00 0.611E-01 0.532E-01   0.553E-02 -.237E-03 -.104E-03
   0.206E+02 0.363E+02 0.186E+02   -.211E+02 -.371E+02 -.190E+02   0.664E+00 0.649E+00 0.545E+00   0.115E-02 0.248E-02 0.110E-02
   -.209E+02 0.362E+02 0.186E+02   0.215E+02 -.371E+02 -.190E+02   -.634E+00 0.653E+00 0.545E+00   -.445E-02 0.342E-02 0.253E-03
   -.117E+02 0.673E+01 0.489E+01   0.114E+02 -.655E+01 -.494E+01   -.105E+00 0.619E-01 0.523E-01   -.240E-02 0.587E-03 -.242E-04
   0.743E+01 0.155E+00 0.381E+01   -.752E+01 -.201E+00 -.377E+01   0.788E-02 -.133E+00 -.720E-01   0.281E-02 0.920E-04 0.347E-03
   0.419E+02 -.205E+00 0.186E+02   -.429E+02 0.201E+00 -.190E+02   0.883E+00 0.222E+00 0.545E+00   0.377E-02 0.174E-02 -.242E-03
   -.490E-01 -.409E-01 0.291E+03   0.450E-01 0.380E-01 -.346E+03   -.125E-02 0.666E-03 0.713E+01   -.219E-02 -.157E-02 0.747E-02
   -.419E+02 -.427E-01 0.186E+02   0.429E+02 -.649E-04 -.190E+02   -.884E+00 0.226E+00 0.545E+00   -.452E-02 -.545E-03 -.466E-03
   -.745E+01 0.287E-01 0.381E+01   0.753E+01 -.379E-01 -.377E+01   -.102E-01 -.138E+00 -.712E-01   -.171E-02 0.752E-03 0.549E-03
   0.112E+02 -.643E+01 0.480E+01   -.114E+02 0.655E+01 -.494E+01   0.104E-01 -.651E-02 0.112E+00   0.369E-02 -.225E-02 -.374E-03
   0.209E+02 -.362E+02 0.186E+02   -.214E+02 0.371E+02 -.190E+02   0.248E+00 -.877E+00 0.545E+00   0.783E-03 -.450E-02 0.136E-03
   -.210E+02 -.362E+02 0.186E+02   0.214E+02 0.371E+02 -.190E+02   -.247E+00 -.880E+00 0.545E+00   -.218E-02 -.559E-03 0.184E-03
   -.112E+02 -.642E+01 0.480E+01   0.113E+02 0.653E+01 -.494E+01   -.115E-01 -.690E-02 0.111E+00   -.361E-02 -.746E-03 -.781E-04
   -.426E-02 -.145E+01 0.282E+01   0.208E-02 0.153E+01 -.278E+01   0.753E-03 -.845E-01 -.149E-01   0.660E-03 -.184E-02 0.592E-03
   0.371E+01 -.643E+01 0.381E+01   -.374E+01 0.650E+01 -.377E+01   0.123E+00 0.616E-01 -.710E-01   0.129E-02 -.329E-02 0.509E-03
   -.686E-02 -.135E+02 0.489E+01   0.208E-02 0.131E+02 -.494E+01   0.198E-02 -.121E+00 0.524E-01   0.492E-03 -.303E-02 0.145E-03
   -.369E+01 -.641E+01 0.381E+01   0.372E+01 0.649E+01 -.377E+01   -.126E+00 0.602E-01 -.715E-01   -.160E-02 -.741E-03 0.519E-04
   -.129E+01 0.768E+00 0.282E+01   0.135E+01 -.807E+00 -.278E+01   -.719E-01 0.409E-01 -.149E-01   -.127E-02 0.223E-02 0.455E-03
   0.127E+01 0.752E+00 0.282E+01   -.134E+01 -.790E+00 -.278E+01   0.758E-01 0.432E-01 -.149E-01   0.139E-02 0.928E-03 0.701E-03
   -.137E+00 -.137E+00 0.250E+01   0.133E+00 0.130E+00 -.250E+01   -.167E-02 -.533E-02 -.102E-01   0.123E-02 -.537E-03 0.316E-03
   0.612E+01 0.406E+01 0.341E+01   -.594E+01 -.429E+01 -.338E+01   0.144E-01 0.171E-02 -.238E-01   0.281E-02 0.151E-02 -.113E-03
   0.594E+01 0.173E+02 0.688E+01   -.568E+01 -.172E+02 -.650E+01   -.663E-01 0.164E+00 -.123E+00   0.715E-03 0.223E-02 0.392E-03
   -.612E+01 0.172E+02 0.687E+01   0.586E+01 -.171E+02 -.650E+01   0.664E-01 0.159E+00 -.120E+00   -.181E-02 0.390E-02 0.284E-03
   -.535E+01 0.406E+01 0.341E+01   0.518E+01 -.428E+01 -.338E+01   0.715E-01 0.344E-02 -.239E-01   -.140E-02 0.193E-02 0.465E-03
   0.534E+01 0.351E+01 0.341E+01   -.528E+01 -.334E+01 -.338E+01   0.109E-01 -.401E-01 -.236E-01   0.351E-02 0.124E-02 0.232E-03
   0.275E+02 0.154E+02 0.126E+02   -.276E+02 -.154E+02 -.131E+02   -.110E+00 -.115E+00 0.142E+00   0.137E-02 -.134E-02 0.244E-03
   -.101E+00 0.877E+02 0.587E+02   0.915E-01 -.922E+02 -.663E+02   0.515E-02 -.639E+00 0.330E+01   0.184E-02 0.444E-02 0.144E-02
   -.283E+02 0.163E+02 0.126E+02   0.286E+02 -.165E+02 -.131E+02   0.160E+00 -.910E-01 0.145E+00   -.399E-02 0.122E-02 0.245E-04
   -.628E+01 0.259E+01 0.341E+01   0.638E+01 -.233E+01 -.338E+01   0.374E-01 -.650E-01 -.239E-01   -.263E-02 0.268E-03 0.497E-03
   0.180E+02 -.331E+01 0.688E+01   -.178E+02 0.349E+01 -.650E+01   0.112E+00 -.136E+00 -.122E+00   0.384E-02 -.105E-02 -.188E-03
   0.760E+02 -.440E+02 0.586E+02   -.798E+02 0.462E+02 -.663E+02   -.560E+00 0.317E+00 0.330E+01   0.423E-02 -.136E-02 0.280E-02
   -.760E+02 -.439E+02 0.586E+02   0.799E+02 0.461E+02 -.663E+02   0.549E+00 0.318E+00 0.331E+01   -.401E-02 -.500E-02 0.516E-03
   -.179E+02 -.330E+01 0.688E+01   0.177E+02 0.348E+01 -.650E+01   -.108E+00 -.138E+00 -.122E+00   -.239E-02 -.770E-03 -.120E-04
   -.228E-01 -.542E+00 0.293E+01   0.194E-01 0.780E+00 -.290E+01   -.431E-02 -.150E+00 -.522E-01   0.524E-03 -.175E-02 0.342E-03
   0.118E+02 -.138E+02 0.687E+01   -.119E+02 0.136E+02 -.650E+01   0.172E+00 -.223E-01 -.120E+00   0.366E-02 -.302E-02 0.344E-03
   -.334E-02 -.327E+02 0.126E+02   0.418E-02 0.330E+02 -.131E+02   0.570E-03 0.184E+00 0.145E+00   -.118E-02 -.292E-02 -.876E-04
   -.118E+02 -.138E+02 0.688E+01   0.119E+02 0.136E+02 -.650E+01   -.173E+00 -.233E-01 -.121E+00   -.187E-02 -.107E-02 0.141E-03
   -.385E+01 -.220E+01 0.282E+01   0.379E+01 0.216E+01 -.286E+01   -.193E-01 -.120E-01 0.129E-01   -.266E-02 -.896E-03 0.570E-03
   0.385E+01 -.220E+01 0.282E+01   -.379E+01 0.217E+01 -.286E+01   0.197E-01 -.106E-01 0.130E-01   0.301E-02 -.199E-02 0.288E-03
   0.858E+00 -.666E+01 0.341E+01   -.113E+01 0.663E+01 -.338E+01   0.390E-01 0.597E-01 -.239E-01   0.124E-02 -.359E-02 0.483E-03
   -.849E+00 -.668E+01 0.341E+01   0.113E+01 0.664E+01 -.338E+01   -.363E-01 0.701E-01 -.238E-01   0.255E-03 -.186E-02 0.915E-04
   -.500E+00 0.351E+00 0.293E+01   0.710E+00 -.464E+00 -.290E+01   -.131E+00 0.669E-01 -.522E-01   -.187E-02 0.175E-02 0.133E-03
   -.161E-01 0.446E+01 0.282E+01   0.153E-01 -.439E+01 -.286E+01   0.112E-02 0.226E-01 0.130E-01   -.129E-02 0.382E-02 0.373E-03
   0.511E+00 0.304E+00 0.293E+01   -.717E+00 -.422E+00 -.290E+01   0.133E+00 0.766E-01 -.528E-01   0.125E-02 -.770E-04 0.545E-03
   -.783E-01 -.663E-01 -.722E+03   0.580E-01 0.498E-01 0.846E+03   0.372E-01 0.218E-01 -.638E+02   -.698E-02 -.148E-02 -.171E-01
 -----------------------------------------------------------------------------------------------
   -.197E-01 -.157E-01 0.440E+02   -.213E-13 -.221E-13 -.568E-12   0.271E-01 0.188E-01 -.440E+02   -.597E-02 -.286E-02 0.602E-02
 
 
 POSITION                                       TOTAL-FORCE (eV/Angst)
 -----------------------------------------------------------------------------------
      0.00000      0.00000      8.35995        -0.041110     -0.023655      0.009262
      2.46000      0.00000      8.35995         0.042994      0.001149      0.009454
      4.92000      0.00000      8.35995        -0.168461     -0.014334     -0.026217
      7.38000      0.00000      8.35995         0.002691     -0.208208     -0.026972
      9.84000      0.00000      8.35995         0.160166      0.015501     -0.025865
      1.23000      2.13042      8.35995         0.045652      0.059310      0.009499
      3.70000      2.13042      8.35995        -0.197475      0.246702      0.000067
      6.15000      2.13042      8.35995         0.142399     -0.203782      0.164670
      8.61000      2.13042      8.35995        -0.093459     -0.204742      0.164788
     11.07000      2.13042      8.35995        -0.427045      0.246461      0.000013
      2.46000      4.26084      8.35995        -0.075784     -0.179072     -0.026261
      4.92000      4.26084      8.35995        -0.133242      0.220494      0.164562
      7.38000      4.26084      8.35995        -0.007485     -0.003812    -48.156932
      9.84000      4.26084      8.35995         0.134126      0.182591      0.165407
     12.30000      4.26084      8.35995         0.071813     -0.146873     -0.026176
      3.69000      6.39127      8.35995        -0.178700      0.102396     -0.026954
      6.15000      6.39127      8.35995        -0.225717      0.024685      0.164582
      8.61000      6.39127      8.35995         0.224415      0.022067      0.165256
     11.07000      6.39127      8.35995         0.180573      0.103618     -0.027052
     13.53000      6.39127      8.35995        -0.000803     -0.013803      0.017863
      4.92000      8.52169      8.35995         0.093436      0.130702     -0.025859
      7.38000      8.52169      8.35995        -0.002339     -0.491390      0.000041
      9.84000      8.52169      8.35995        -0.090527      0.131406     -0.026019
     12.30000      8.52169      8.35995        -0.012198      0.005074      0.017909
     14.76000      8.52169      8.35995         0.012590      0.006728      0.017821
      1.23000      0.71014      8.36012        -0.004855     -0.012576     -0.006114
      3.69000      0.71014      8.36012         0.200997     -0.222393      0.010284
      6.15000      0.71014      8.36012         0.194125      0.260737      0.256779
      8.61000      0.71014      8.36012        -0.194851      0.250127      0.256679
     11.07000      0.71014      8.36012        -0.099716     -0.215805      0.010139
      2.46000      2.84056      8.36012         0.075965      0.128801      0.010104
      4.92000      2.84056      8.36012        -0.216615     -0.187783     -0.354719
      7.38000      2.84056      8.36012        -0.002872     -5.085109     -4.350532
      9.84000      2.84056      8.36012         0.442007     -0.253765     -0.355209
     12.30000      2.84056      8.36012         0.137999      0.199425      0.010061
      3.69000      4.97099      8.36012         0.332550      0.044649      0.257621
      6.15000      4.97099      8.36012        -4.406279      2.531021     -4.352094
      8.61000      4.97099      8.36012         4.391437      2.537235     -4.344265
     11.07000      4.97099      8.36012        -0.318408      0.043841      0.256907
     13.53000      4.97099      8.36012        -0.007175      0.086139     -0.022232
      4.92000      7.10141      8.36012         0.120979     -0.293480      0.256585
      7.38000      7.10141      8.36012         0.000209      0.508206     -0.355359
      9.84000      7.10141      8.36012        -0.120791     -0.294301      0.256973
     12.30000      7.10141      8.36012        -0.081988     -0.047476     -0.026410
     14.76000      7.10141      8.36012         0.081402     -0.047808     -0.026425
      6.15000      9.23183      8.36012        -0.235613      0.020694      0.010104
      8.61000      9.23183      8.36012         0.241928      0.027030      0.010114
     11.07000      9.23183      8.36012         0.076168     -0.044639     -0.022062
     13.53000      9.23183      8.36012        -0.001068      0.095767     -0.026411
     15.99000      9.23183      8.36012        -0.071845     -0.041580     -0.022029
      7.38000      4.26084      9.36012         0.009800      0.003832     59.984628
 -----------------------------------------------------------------------------------
    total drift:                                0.001449      0.000189     -0.000604


--------------------------------------------------------------------------------------------------------



  FREE ENERGIE OF THE ION-ELECTRON SYSTEM (eV)
  ---------------------------------------------------
  free  energy   TOTEN  =      -454.34170723 eV

  energy  without entropy=     -454.34158881  energy(sigma->0) =     -454.34164802
 


--------------------------------------------------------------------------------------------------------


    POTLOK:  cpu time    0.1840: real time    0.1845


--------------------------------------------------------------------------------------------------------


 stress matrix after NEB project (eV)
     15.54066      0.10377      0.00967
      0.10377     15.56610      0.00376
      0.00967      0.00376     52.16639
  FORCES: max atom, RMS    59.984628   10.896285
  FORCE total and by dimension   77.815041   59.984628
  Stress total and by dimension   56.614215   52.166387
     LOOP+:  cpu time   42.2324: real time   42.2861
    4ORBIT:  cpu time    0.0000: real time    0.0000

 total amount of memory used by VASP MPI-rank0    90113. kBytes
=======================================================================

   base      :      30000. kBytes
   nonl-proj :       8674. kBytes
   fftplans  :      26248. kBytes
   grid      :      14579. kBytes
   one-center:         21. kBytes
   wavefun   :      10591. kBytes
 
  
  
 General timing and accounting informations for this job:
 ========================================================
  
                  Total CPU time used (sec):       49.843
                            User time (sec):       46.740
                          System time (sec):        3.103
                         Elapsed time (sec):       49.949
  
                   Maximum memory used (kb):      363984.
                   Average memory used (kb):           0.
  
                          Minor page faults:       106635
                          Major page faults:            0
                 Voluntary context switches:         1364
