  51  51   0   0
  0.5138078E+02  0.1230000E-08  0.1230000E-08  0.2000000E-08  0.5000000E-15
  1.000000000000000E-004
  CAR 
                                         
      5.37235487    -33.50747731  301     -3.01714168      1.00000000
    -33.507  0.0000E+00  0.0000E+00
    -33.378  0.0000E+00  0.0000E+00
    -33.248  0.0000E+00  0.0000E+00
    -33.119  0.0000E+00  0.0000E+00
    -32.989  0.0000E+00  0.0000E+00
    -32.859  0.0000E+00  0.0000E+00
    -32.730  0.0000E+00  0.0000E+00
    -32.600  0.0000E+00  0.0000E+00
    -32.471  0.0000E+00  0.0000E+00
    -32.341  0.0000E+00  0.0000E+00
    -32.211  0.0000E+00  0.0000E+00
    -32.082  0.0000E+00  0.0000E+00
    -31.952  0.1526E-07  0.1978E-08
    -31.823  0.1512E+00  0.1960E-01
    -31.693  0.1387E+02  0.1817E+01
    -31.563  0.1412E+01  0.2000E+01
    -31.434  0.4487E-05  0.2000E+01
    -31.304  0.0000E+00  0.2000E+01
    -31.175  0.0000E+00  0.2000E+01
    -31.045  0.0000E+00  0.2000E+01
    -30.915  0.0000E+00  0.2000E+01
    -30.786  0.0000E+00  0.2000E+01
    -30.656  0.0000E+00  0.2000E+01
    -30.527  0.0000E+00  0.2000E+01
    -30.397  0.0000E+00  0.2000E+01
    -30.267  0.0000E+00  0.2000E+01
    -30.138  0.0000E+00  0.2000E+01
    -30.008  0.0000E+00  0.2000E+01
    -29.879  0.0000E+00  0.2000E+01
    -29.749  0.0000E+00  0.2000E+01
    -29.619  0.0000E+00  0.2000E+01
    -29.490  0.0000E+00  0.2000E+01
    -29.360  0.0000E+00  0.2000E+01
    -29.231  0.0000E+00  0.2000E+01
    -29.101  0.0000E+00  0.2000E+01
    -28.971  0.0000E+00  0.2000E+01
    -28.842  0.0000E+00  0.2000E+01
    -28.712  0.0000E+00  0.2000E+01
    -28.583  0.0000E+00  0.2000E+01
    -28.453  0.0000E+00  0.2000E+01
    -28.323  0.0000E+00  0.2000E+01
    -28.194  0.0000E+00  0.2000E+01
    -28.064  0.0000E+00  0.2000E+01
    -27.935  0.0000E+00  0.2000E+01
    -27.805  0.0000E+00  0.2000E+01
    -27.676  0.0000E+00  0.2000E+01
    -27.546  0.0000E+00  0.2000E+01
    -27.416  0.0000E+00  0.2000E+01
    -27.287  0.0000E+00  0.2000E+01
    -27.157  0.0000E+00  0.2000E+01
    -27.028  0.0000E+00  0.2000E+01
    -26.898  0.0000E+00  0.2000E+01
    -26.768  0.0000E+00  0.2000E+01
    -26.639  0.0000E+00  0.2000E+01
    -26.509  0.0000E+00  0.2000E+01
    -26.380  0.0000E+00  0.2000E+01
    -26.250  0.0000E+00  0.2000E+01
    -26.120  0.0000E+00  0.2000E+01
    -25.991  0.0000E+00  0.2000E+01
    -25.861  0.0000E+00  0.2000E+01
    -25.732  0.0000E+00  0.2000E+01
    -25.602  0.0000E+00  0.2000E+01
    -25.472  0.0000E+00  0.2000E+01
    -25.343  0.0000E+00  0.2000E+01
    -25.213  0.0000E+00  0.2000E+01
    -25.084  0.0000E+00  0.2000E+01
    -24.954  0.0000E+00  0.2000E+01
    -24.824  0.0000E+00  0.2000E+01
    -24.695  0.0000E+00  0.2000E+01
    -24.565  0.0000E+00  0.2000E+01
    -24.436  0.0000E+00  0.2000E+01
    -24.306  0.0000E+00  0.2000E+01
    -24.176  0.0000E+00  0.2000E+01
    -24.047  0.0000E+00  0.2000E+01
    -23.917  0.0000E+00  0.2000E+01
    -23.788  0.0000E+00  0.2000E+01
    -23.658  0.0000E+00  0.2000E+01
    -23.528  0.0000E+00  0.2000E+01
    -23.399  0.0000E+00  0.2000E+01
    -23.269  0.0000E+00  0.2000E+01
    -23.140  0.0000E+00  0.2000E+01
    -23.010  0.0000E+00  0.2000E+01
    -22.880  0.0000E+00  0.2000E+01
    -22.751  0.0000E+00  0.2000E+01
    -22.621  0.0000E+00  0.2000E+01
    -22.492  0.3840E-09  0.2000E+01
    -22.362  0.8706E-02  0.2001E+01
    -22.232  0.2603E+01  0.2339E+01
    -22.103  0.1023E+02  0.3665E+01
    -21.973  0.5464E+01  0.4373E+01
    -21.844  0.8845E+01  0.5519E+01
    -21.714  0.6103E+01  0.6310E+01
    -21.584  0.9496E+01  0.7541E+01
    -21.455  0.8594E+01  0.8655E+01
    -21.325  0.1025E+02  0.9983E+01
    -21.196  0.1347E+01  0.1016E+02
    -21.066  0.7548E+01  0.1114E+02
    -20.936  0.9890E+01  0.1242E+02
    -20.807  0.1380E+02  0.1421E+02
    -20.677  0.9614E+01  0.1545E+02
    -20.548  0.7979E+00  0.1556E+02
    -20.418  0.6964E+01  0.1646E+02
    -20.288  0.9921E+01  0.1774E+02
    -20.159  0.1054E+02  0.1911E+02
    -20.029  0.1029E+02  0.2044E+02
    -19.900  0.8960E+00  0.2056E+02
    -19.770  0.9809E+01  0.2183E+02
    -19.640  0.1289E+02  0.2350E+02
    -19.511  0.7952E+01  0.2453E+02
    -19.381  0.1656E+01  0.2475E+02
    -19.252  0.1372E+02  0.2653E+02
    -19.122  0.8359E+01  0.2761E+02
    -18.992  0.9640E+01  0.2886E+02
    -18.863  0.3708E+01  0.2934E+02
    -18.733  0.3572E+01  0.2980E+02
    -18.604  0.1155E+02  0.3130E+02
    -18.474  0.1047E+02  0.3266E+02
    -18.344  0.1293E+02  0.3433E+02
    -18.215  0.4337E+01  0.3489E+02
    -18.085  0.1140E+02  0.3637E+02
    -17.956  0.9966E+01  0.3766E+02
    -17.826  0.5058E+01  0.3832E+02
    -17.696  0.2705E+01  0.3867E+02
    -17.567  0.1086E+02  0.4008E+02
    -17.437  0.1268E+02  0.4172E+02
    -17.308  0.7099E+01  0.4264E+02
    -17.178  0.1830E+02  0.4501E+02
    -17.048  0.6600E+01  0.4587E+02
    -16.919  0.3026E+01  0.4626E+02
    -16.789  0.9601E+01  0.4750E+02
    -16.660  0.5418E+01  0.4821E+02
    -16.530  0.7690E+01  0.4920E+02
    -16.400  0.8887E+01  0.5035E+02
    -16.271  0.2963E+01  0.5074E+02
    -16.141  0.9803E+01  0.5201E+02
    -16.012  0.6031E+01  0.5279E+02
    -15.882  0.1278E+02  0.5445E+02
    -15.752  0.1175E+02  0.5597E+02
    -15.623  0.2180E+01  0.5625E+02
    -15.493  0.4209E+01  0.5680E+02
    -15.364  0.2746E+01  0.5715E+02
    -15.234  0.1015E+02  0.5847E+02
    -15.104  0.2193E+02  0.6131E+02
    -14.975  0.5157E+01  0.6198E+02
    -14.845  0.1118E+02  0.6343E+02
    -14.716  0.1110E+02  0.6487E+02
    -14.586  0.6552E+01  0.6572E+02
    -14.456  0.1309E+02  0.6741E+02
    -14.327  0.7955E+01  0.6844E+02
    -14.197  0.4179E+00  0.6850E+02
    -14.068  0.4673E+01  0.6910E+02
    -13.938  0.7059E+01  0.7002E+02
    -13.808  0.1478E+02  0.7193E+02
    -13.679  0.2246E+02  0.7485E+02
    -13.549  0.2261E+01  0.7514E+02
    -13.420  0.3159E+01  0.7555E+02
    -13.290  0.9745E-01  0.7556E+02
    -13.160  0.8872E+01  0.7671E+02
    -13.031  0.1363E+02  0.7848E+02
    -12.901  0.1889E+02  0.8092E+02
    -12.772  0.6583E+01  0.8178E+02
    -12.642  0.6049E+00  0.8186E+02
    -12.512  0.1878E+02  0.8429E+02
    -12.383  0.1058E+02  0.8566E+02
    -12.253  0.6067E+01  0.8645E+02
    -12.124  0.1953E+01  0.8670E+02
    -11.994  0.1268E+02  0.8834E+02
    -11.864  0.2940E+01  0.8873E+02
    -11.735  0.1063E+02  0.9010E+02
    -11.605  0.2085E+02  0.9280E+02
    -11.476  0.1271E+02  0.9445E+02
    -11.346  0.9316E+01  0.9566E+02
    -11.216  0.9406E+01  0.9688E+02
    -11.087  0.8713E+01  0.9801E+02
    -10.957  0.3562E+01  0.9847E+02
    -10.828  0.2147E+02  0.1013E+03
    -10.698  0.7491E+01  0.1022E+03
    -10.568  0.9016E+01  0.1034E+03
    -10.439  0.1560E+02  0.1054E+03
    -10.309  0.6406E+01  0.1062E+03
    -10.180  0.3221E+02  0.1104E+03
    -10.050  0.2250E+02  0.1133E+03
     -9.920  0.1167E+02  0.1148E+03
     -9.791  0.2101E+02  0.1176E+03
     -9.661  0.1602E+02  0.1196E+03
     -9.532  0.3193E+02  0.1238E+03
     -9.402  0.1588E+02  0.1258E+03
     -9.272  0.3010E+02  0.1297E+03
     -9.143  0.2216E+02  0.1326E+03
     -9.013  0.2895E+02  0.1364E+03
     -8.884  0.2162E+02  0.1392E+03
     -8.754  0.1300E+02  0.1409E+03
     -8.624  0.2751E+02  0.1444E+03
     -8.495  0.1527E+02  0.1464E+03
     -8.365  0.1647E+02  0.1485E+03
     -8.236  0.1472E+02  0.1504E+03
     -8.106  0.1825E+02  0.1528E+03
     -7.976  0.2761E+02  0.1564E+03
     -7.847  0.1607E+02  0.1585E+03
     -7.717  0.1524E+02  0.1604E+03
     -7.588  0.8534E+01  0.1615E+03
     -7.458  0.1836E+01  0.1618E+03
     -7.328  0.1790E+02  0.1641E+03
     -7.199  0.3248E+02  0.1683E+03
     -7.069  0.1624E+02  0.1704E+03
     -6.940  0.3749E+01  0.1709E+03
     -6.810  0.2014E+02  0.1735E+03
     -6.680  0.1164E+02  0.1750E+03
     -6.551  0.1683E+02  0.1772E+03
     -6.421  0.7589E+01  0.1782E+03
     -6.292  0.1163E+02  0.1797E+03
     -6.162  0.1534E+02  0.1817E+03
     -6.032  0.1483E+02  0.1836E+03
     -5.903  0.1677E+02  0.1858E+03
     -5.773  0.1031E+02  0.1871E+03
     -5.644  0.1334E+02  0.1888E+03
     -5.514  0.5676E+01  0.1896E+03
     -5.384  0.6597E+01  0.1904E+03
     -5.255  0.1019E+02  0.1918E+03
     -5.125  0.7483E+01  0.1927E+03
     -4.996  0.1480E+02  0.1946E+03
     -4.866  0.2363E+02  0.1977E+03
     -4.736  0.3286E+01  0.1981E+03
     -4.607  0.7356E+00  0.1982E+03
     -4.477  0.1432E-04  0.1982E+03
     -4.348  0.2063E+00  0.1982E+03
     -4.218  0.1494E+02  0.2002E+03
     -4.088  0.1046E+02  0.2015E+03
     -3.959  0.1164E+00  0.2016E+03
     -3.829  0.1100E-01  0.2016E+03
     -3.700  0.2823E+01  0.2019E+03
     -3.570  0.5983E+00  0.2020E+03
     -3.440  0.2395E+01  0.2023E+03
     -3.311  0.9595E+01  0.2036E+03
     -3.181  0.9059E+01  0.2047E+03
     -3.052  0.9731E+01  0.2060E+03
     -2.922  0.8314E+00  0.2061E+03
     -2.792  0.7413E+01  0.2071E+03
     -2.663  0.3840E+01  0.2076E+03
     -2.533  0.4030E-03  0.2076E+03
     -2.404  0.1098E+01  0.2077E+03
     -2.274  0.2600E+01  0.2080E+03
     -2.144  0.3120E+01  0.2084E+03
     -2.015  0.4156E-01  0.2084E+03
     -1.885  0.5556E-08  0.2084E+03
     -1.756  0.1705E-04  0.2084E+03
     -1.626  0.1671E+01  0.2087E+03
     -1.496  0.9512E+01  0.2099E+03
     -1.367  0.1396E+02  0.2117E+03
     -1.237  0.5811E+00  0.2118E+03
     -1.108  0.1698E-02  0.2118E+03
     -0.978  0.2503E+01  0.2121E+03
     -0.848  0.1585E+02  0.2142E+03
     -0.719  0.2038E+02  0.2168E+03
     -0.589  0.1642E+02  0.2189E+03
     -0.460  0.4801E+01  0.2195E+03
     -0.330  0.1669E+00  0.2196E+03
     -0.200  0.5540E+01  0.2203E+03
     -0.071  0.1132E+02  0.2218E+03
      0.059  0.1012E+02  0.2231E+03
      0.188  0.6357E+00  0.2231E+03
      0.318  0.1742E+02  0.2254E+03
      0.448  0.6878E+01  0.2263E+03
      0.577  0.3156E+01  0.2267E+03
      0.707  0.1114E+02  0.2282E+03
      0.836  0.1705E+02  0.2304E+03
      0.966  0.5945E+01  0.2311E+03
      1.096  0.1089E+02  0.2325E+03
      1.225  0.1549E+02  0.2346E+03
      1.355  0.7647E+01  0.2355E+03
      1.484  0.1460E+02  0.2374E+03
      1.614  0.2435E+02  0.2406E+03
      1.744  0.1528E+02  0.2426E+03
      1.873  0.2754E+02  0.2461E+03
      2.003  0.1267E+02  0.2478E+03
      2.132  0.1777E+02  0.2501E+03
      2.262  0.2595E+02  0.2534E+03
      2.392  0.3459E+02  0.2579E+03
      2.521  0.1566E+02  0.2600E+03
      2.651  0.2542E+01  0.2603E+03
      2.780  0.5856E+01  0.2610E+03
      2.910  0.5650E+01  0.2618E+03
      3.040  0.7417E+01  0.2627E+03
      3.169  0.2876E+01  0.2631E+03
      3.299  0.3009E+01  0.2635E+03
      3.428  0.3976E+00  0.2636E+03
      3.558  0.3130E+00  0.2636E+03
      3.688  0.3083E+01  0.2640E+03
      3.817  0.3372E-01  0.2640E+03
      3.947  0.3419E-08  0.2640E+03
      4.076  0.0000E+00  0.2640E+03
      4.206  0.0000E+00  0.2640E+03
      4.336  0.0000E+00  0.2640E+03
      4.465  0.0000E+00  0.2640E+03
      4.595  0.0000E+00  0.2640E+03
      4.724  0.0000E+00  0.2640E+03
      4.854  0.0000E+00  0.2640E+03
      4.984  0.0000E+00  0.2640E+03
      5.113  0.0000E+00  0.2640E+03
      5.243  0.0000E+00  0.2640E+03
      5.372  0.0000E+00  0.2640E+03
