<?xml version="1.0" encoding="ISO-8859-1"?>
<modeling>
 <generator>
  <i name="program" type="string">vasp </i>
  <i name="version" type="string">5.4.4.18Apr17-6-g9f103f2a35  </i>
  <i name="subversion" type="string">(build Aug 13 2022 23:40:43) complex            parallel </i>
  <i name="platform" type="string">LinuxIFC </i>
  <i name="date" type="string">2024 11 10 </i>
  <i name="time" type="string">03:50:48 </i>
 </generator>
 <incar>
  <i type="int" name="ISTART">     1</i>
  <i type="string" name="PREC">accurate</i>
  <i type="string" name="ALGO"> F          N:DAV,fine,slow</i>
  <i type="logical" name="ADDGRID"> T  </i>
  <i type="int" name="ISPIN">     1</i>
  <i type="int" name="ICHARG">     1</i>
  <i type="int" name="NELM">   300</i>
  <i type="int" name="IBRION">    -1</i>
  <i name="EDIFF">      0.00001000</i>
  <i name="EDIFFG">     -0.00100000</i>
  <i type="int" name="NSW">     1</i>
  <i type="int" name="ISIF">     2</i>
  <i name="ENCUT">    400.00000000</i>
  <i type="logical" name="LREAL"> F  </i>
  <i type="int" name="ISMEAR">     0</i>
  <i name="SIGMA">      0.05000000</i>
  <i type="logical" name="LWAVE"> F  </i>
  <i type="logical" name="LCHARG"> F  </i>
  <v type="int" name="KPOINT_BSE">    -1     0     0     0</v>
  <i type="int" name="NELM">   300</i>
 </incar>
 <structure name="primitive_cell" >
  <crystal>
   <varray name="basis" >
    <v>      12.30000019       0.00000000       0.00000000 </v>
    <v>       6.15000080      10.65211222       0.00000000 </v>
    <v>       0.00000000       0.00000000      20.00000000 </v>
   </varray>
   <i name="volume">   2620.41964732 </i>
   <varray name="rec_basis" >
    <v>       0.08130081      -0.04693905       0.00000000 </v>
    <v>       0.00000000       0.09387809       0.00000000 </v>
    <v>       0.00000000       0.00000000       0.05000000 </v>
   </varray>
  </crystal>
  <varray name="positions" >
   <v>       0.00000000       0.00000000       0.41799748 </v>
   <v>       0.06666667       0.06666660       0.41800609 </v>
   <v>      -0.13333333       0.06666660       0.41800609 </v>
   <v>       0.06666667      -0.13333340       0.41800609 </v>
   <v>      -0.20000000       0.20000000       0.41799748 </v>
   <v>       0.20000000      -0.20000000       0.41799748 </v>
   <v>       0.20000000       0.00000000       0.41799748 </v>
   <v>      -0.20000000       0.00000000       0.41799748 </v>
   <v>       0.00000000       0.20000000       0.41799748 </v>
   <v>       0.00000000      -0.20000000       0.41799748 </v>
   <v>      -0.13333333       0.26666660       0.41800609 </v>
   <v>       0.26666667      -0.13333340       0.41800609 </v>
   <v>      -0.13333333      -0.13333340       0.41800609 </v>
   <v>       0.06666667       0.26666660       0.41800609 </v>
   <v>      -0.33333333       0.26666660       0.41800609 </v>
   <v>       0.26666667       0.06666660       0.41800609 </v>
   <v>      -0.33333333       0.06666660       0.41800609 </v>
   <v>       0.26666667      -0.33333340       0.41800609 </v>
   <v>       0.06666667      -0.33333340       0.41800609 </v>
   <v>      -0.40000000       0.20000000       0.41799748 </v>
   <v>       0.40000000      -0.20000000       0.41799748 </v>
   <v>      -0.20000000       0.40000000       0.41799748 </v>
   <v>       0.20000000      -0.40000000       0.41799748 </v>
   <v>       0.20000000       0.20000000       0.41799748 </v>
   <v>      -0.20000000      -0.20000000       0.41799748 </v>
   <v>      -0.40000000       0.40000000       0.41799748 </v>
   <v>       0.40000000      -0.40000000       0.41799748 </v>
   <v>       0.40000000       0.00000000       0.41799748 </v>
   <v>       0.00000000       0.40000000       0.41799748 </v>
   <v>       0.00000000      -0.40000000       0.41799748 </v>
   <v>      -0.40000000       0.00000000       0.41749748 </v>
   <v>      -0.13333333       0.46666660       0.41800609 </v>
   <v>      -0.33333333       0.46666660       0.41800609 </v>
   <v>       0.46666667      -0.13333340       0.41800609 </v>
   <v>       0.46666667      -0.33333340       0.41800609 </v>
   <v>      -0.33333333      -0.13333340       0.41800609 </v>
   <v>      -0.13333333      -0.33333340       0.41800609 </v>
   <v>       0.26666667       0.26666660       0.41800609 </v>
   <v>       0.46666667       0.26666660       0.41800609 </v>
   <v>       0.26666667       0.46666660       0.41800609 </v>
   <v>       0.06666667       0.46666660       0.41800609 </v>
   <v>       0.46666667       0.46666660       0.41800609 </v>
   <v>       0.46666667       0.06666660       0.41800609 </v>
   <v>       0.40000000       0.40000000       0.41799748 </v>
   <v>      -0.40000000      -0.40000000       0.41799748 </v>
   <v>       0.40000000       0.20000000       0.41799748 </v>
   <v>      -0.40000000      -0.20000000       0.41799748 </v>
   <v>       0.20000000       0.40000000       0.41799748 </v>
   <v>      -0.20000000      -0.40000000       0.41799748 </v>
   <v>       0.40000000       0.40000000       0.46800609 </v>
   <v>      -0.33333333      -0.33333340       0.41800609 </v>
  </varray>
 </structure>
 <varray name="primitive_index" >
  <v type="int" >        1 </v>
  <v type="int" >       26 </v>
  <v type="int" >       30 </v>
  <v type="int" >       46 </v>
  <v type="int" >       10 </v>
  <v type="int" >       22 </v>
  <v type="int" >        2 </v>
  <v type="int" >        5 </v>
  <v type="int" >        6 </v>
  <v type="int" >       21 </v>
  <v type="int" >       35 </v>
  <v type="int" >       47 </v>
  <v type="int" >       50 </v>
  <v type="int" >       31 </v>
  <v type="int" >       34 </v>
  <v type="int" >       27 </v>
  <v type="int" >       29 </v>
  <v type="int" >       42 </v>
  <v type="int" >       41 </v>
  <v type="int" >        9 </v>
  <v type="int" >       23 </v>
  <v type="int" >       15 </v>
  <v type="int" >       17 </v>
  <v type="int" >        7 </v>
  <v type="int" >       25 </v>
  <v type="int" >       14 </v>
  <v type="int" >       18 </v>
  <v type="int" >        3 </v>
  <v type="int" >       11 </v>
  <v type="int" >       16 </v>
  <v type="int" >        4 </v>
  <v type="int" >       40 </v>
  <v type="int" >       39 </v>
  <v type="int" >       48 </v>
  <v type="int" >       43 </v>
  <v type="int" >       49 </v>
  <v type="int" >       45 </v>
  <v type="int" >       32 </v>
  <v type="int" >       33 </v>
  <v type="int" >       37 </v>
  <v type="int" >       36 </v>
  <v type="int" >       38 </v>
  <v type="int" >       28 </v>
  <v type="int" >       13 </v>
  <v type="int" >       19 </v>
  <v type="int" >        8 </v>
  <v type="int" >       24 </v>
  <v type="int" >       12 </v>
  <v type="int" >       20 </v>
  <v type="int" >       51 </v>
  <v type="int" >       44 </v>
 </varray>
 <kpoints>
  <generation param="Gamma">
   <v type="int" name="divisions">       3        3        1 </v>
   <v name="usershift">      0.00000000       0.00000000       0.00000000 </v>
   <v name="genvec1">      0.33333333      -0.00000000       0.00000000 </v>
   <v name="genvec2">      0.00000000       0.33333333       0.00000000 </v>
   <v name="genvec3">      0.00000000       0.00000000       1.00000000 </v>
   <v name="shift">      0.00000000       0.00000000       0.00000000 </v>
  </generation>
  <varray name="kpointlist" >
   <v>       0.00000000       0.00000000       0.00000000 </v>
   <v>       0.33333333       0.00000000       0.00000000 </v>
   <v>       0.00000000       0.33333333       0.00000000 </v>
   <v>      -0.33333333       0.33333333       0.00000000 </v>
  </varray>
  <varray name="weights" >
   <v>       0.11111111 </v>
   <v>       0.44444444 </v>
   <v>       0.22222222 </v>
   <v>       0.22222222 </v>
  </varray>
 </kpoints>
 <parameters>
  <separator name="general" >
   <i type="string" name="SYSTEM"></i>
   <i type="logical" name="LCOMPAT"> F  </i>
  </separator>
  <separator name="electronic" >
   <i type="string" name="PREC">accura</i>
   <i name="ENMAX">    400.00000000</i>
   <i name="ENAUG">    644.87300000</i>
   <i name="EDIFF">      0.00001000</i>
   <i type="int" name="IALGO">    68</i>
   <i type="int" name="IWAVPR">    10</i>
   <i type="int" name="NBANDS">   132</i>
   <i name="NELECT">    206.00000000</i>
   <i type="int" name="TURBO">     0</i>
   <i type="int" name="IRESTART">     0</i>
   <i type="int" name="NREBOOT">     0</i>
   <i type="int" name="NMIN">     0</i>
   <i name="EREF">      0.00000000</i>
   <separator name="electronic smearing" >
    <i type="int" name="ISMEAR">     0</i>
    <i name="SIGMA">      0.05000000</i>
    <i name="KSPACING">      0.50000000</i>
    <i type="logical" name="KGAMMA"> T  </i>
   </separator>
   <separator name="electronic projectors" >
    <i type="logical" name="LREAL"> F  </i>
    <v name="ROPT">      0.00000000      0.00000000</v>
    <i type="int" name="LMAXPAW">  -100</i>
    <i type="int" name="LMAXMIX">     2</i>
    <i type="logical" name="NLSPLINE"> F  </i>
   </separator>
   <separator name="electronic startup" >
    <i type="int" name="ISTART">     1</i>
    <i type="int" name="ICHARG">     1</i>
    <i type="int" name="INIWAV">     1</i>
   </separator>
   <separator name="electronic spin" >
    <i type="int" name="ISPIN">     1</i>
    <i type="logical" name="LNONCOLLINEAR"> F  </i>
    <v name="MAGMOM">      1.00000000      1.00000000      1.00000000      1.00000000      1.00000000      1.00000000      1.00000000      1.00000000      1.00000000      1.00000000      1.00000000      1.00000000      1.00000000      1.00000000      1.00000000      1.00000000      1.00000000      1.00000000      1.00000000      1.00000000
      1.00000000      1.00000000      1.00000000      1.00000000      1.00000000      1.00000000      1.00000000      1.00000000      1.00000000      1.00000000      1.00000000      1.00000000      1.00000000      1.00000000      1.00000000      1.00000000      1.00000000      1.00000000      1.00000000      1.00000000
      1.00000000      1.00000000      1.00000000      1.00000000      1.00000000      1.00000000      1.00000000      1.00000000      1.00000000      1.00000000      1.00000000</v>
    <i name="NUPDOWN">     -1.00000000</i>
    <i type="logical" name="LSORBIT"> F  </i>
    <v name="SAXIS">      0.00000000      0.00000000      1.00000000</v>
    <i type="logical" name="LSPIRAL"> F  </i>
    <v name="QSPIRAL">      0.00000000      0.00000000      0.00000000</v>
    <i type="logical" name="LZEROZ"> F  </i>
   </separator>
   <separator name="electronic exchange-correlation" >
    <i type="logical" name="LASPH"> F  </i>
    <i type="logical" name="LMETAGGA"> F  </i>
   </separator>
   <separator name="electronic convergence" >
    <i type="int" name="NELM">   300</i>
    <i type="int" name="NELMDL">     0</i>
    <i type="int" name="NELMIN">     2</i>
    <i name="ENINI">    400.00000000</i>
    <separator name="electronic convergence detail" >
     <i type="logical" name="LDIAG"> T  </i>
     <i type="logical" name="LSUBROT"> F  </i>
     <i name="WEIMIN">      0.00000000</i>
     <i name="EBREAK">      0.00000002</i>
     <i name="DEPER">      0.30000000</i>
     <i type="int" name="NRMM">     4</i>
     <i name="TIME">      0.40000000</i>
    </separator>
   </separator>
   <separator name="electronic mixer" >
    <i name="AMIX">      0.40000000</i>
    <i name="BMIX">      1.00000000</i>
    <i name="AMIN">      0.10000000</i>
    <i name="AMIX_MAG">      1.60000000</i>
    <i name="BMIX_MAG">      1.00000000</i>
    <separator name="electronic mixer details" >
     <i type="int" name="IMIX">     4</i>
     <i type="logical" name="MIXFIRST"> F  </i>
     <i type="int" name="MAXMIX">   -45</i>
     <i name="WC">    100.00000000</i>
     <i type="int" name="INIMIX">     1</i>
     <i type="int" name="MIXPRE">     1</i>
     <i type="int" name="MREMOVE">     5</i>
    </separator>
   </separator>
   <separator name="electronic dipolcorrection" >
    <i type="logical" name="LDIPOL"> F  </i>
    <i type="logical" name="LMONO"> F  </i>
    <i type="int" name="IDIPOL">     0</i>
    <i name="EPSILON">      1.00000000</i>
    <v name="DIPOL">   -100.00000000   -100.00000000   -100.00000000</v>
    <i name="EFIELD">      0.00000000</i>
   </separator>
  </separator>
  <separator name="grids" >
   <i type="int" name="NGX">    80</i>
   <i type="int" name="NGY">    80</i>
   <i type="int" name="NGZ">   140</i>
   <i type="int" name="NGXF">   160</i>
   <i type="int" name="NGYF">   160</i>
   <i type="int" name="NGZF">   280</i>
   <i type="logical" name="ADDGRID"> T  </i>
  </separator>
  <separator name="ionic" >
   <i type="int" name="NSW">     1</i>
   <i type="int" name="IBRION">    -1</i>
   <i type="int" name="MDALGO">     0</i>
   <i type="int" name="ISIF">     2</i>
   <i name="PSTRESS">      0.00000000</i>
   <i name="EDIFFG">     -0.00100000</i>
   <i type="int" name="NFREE">     0</i>
   <i name="POTIM">      0.50000000</i>
   <i name="SMASS">     -3.00000000</i>
   <i name="SCALEE">      1.00000000</i>
  </separator>
  <separator name="ionic md" >
   <i name="TEBEG">      0.00010000</i>
   <i name="TEEND">      0.00010000</i>
   <i type="int" name="NBLOCK">     1</i>
   <i type="int" name="KBLOCK">     1</i>
   <i type="int" name="NPACO">   256</i>
   <i name="APACO">     16.00000000</i>
  </separator>
  <separator name="symmetry" >
   <i type="int" name="ISYM">     2</i>
   <i name="SYMPREC">      0.00001000</i>
  </separator>
  <separator name="dos" >
   <i type="int" name="LORBIT">     0</i>
   <v name="RWIGS">     -1.00000000     -1.00000000</v>
   <i type="int" name="NEDOS">   301</i>
   <i name="EMIN">     10.00000000</i>
   <i name="EMAX">    -10.00000000</i>
   <i name="EFERMI">      0.00000000</i>
  </separator>
  <separator name="writing" >
   <i type="int" name="NWRITE">     2</i>
   <i type="logical" name="LWAVE"> F  </i>
   <i type="logical" name="LDOWNSAMPLE"> F  </i>
   <i type="logical" name="LCHARG"> F  </i>
   <i type="logical" name="LPARD"> F  </i>
   <i type="logical" name="LVTOT"> F  </i>
   <i type="logical" name="LVHAR"> F  </i>
   <i type="logical" name="LELF"> F  </i>
   <i type="logical" name="LOPTICS"> F  </i>
   <v name="STM">      0.00000000      0.00000000      0.00000000      0.00000000      0.00000000      0.00000000      0.00000000</v>
  </separator>
  <separator name="performance" >
   <i type="int" name="NPAR">     6</i>
   <i type="int" name="NSIM">     4</i>
   <i type="int" name="NBLK">    -1</i>
   <i type="logical" name="LPLANE"> T  </i>
   <i type="logical" name="LSCALAPACK"> T  </i>
   <i type="logical" name="LSCAAWARE"> F  </i>
   <i type="logical" name="LSCALU"> F  </i>
   <i type="logical" name="LASYNC"> F  </i>
   <i type="logical" name="LORBITALREAL"> F  </i>
  </separator>
  <separator name="miscellaneous" >
   <i type="int" name="IDIOT">     3</i>
   <i type="int" name="ISPECIAL">     0</i>
   <i type="logical" name="LMUSIC"> F  </i>
   <v name="POMASS">     12.01100000     16.00000000</v>
   <v name="DARWINR">      0.00000000      0.00000000</v>
   <v name="DARWINV">      1.00000000      1.00000000</v>
   <i type="logical" name="LCORR"> T  </i>
  </separator>
  <i type="logical" name="GGA_COMPAT"> T  </i>
  <i type="logical" name="LBERRY"> F  </i>
  <i type="int" name="ICORELEVEL">     0</i>
  <i type="logical" name="LDAU"> F  </i>
  <i type="int" name="I_CONSTRAINED_M">     0</i>
  <separator name="electronic exchange-correlation" >
   <i type="string" name="GGA">--</i>
   <i type="int" name="VOSKOWN">     0</i>
   <i type="logical" name="LHFCALC"> F  </i>
   <i type="string" name="PRECFOCK"></i>
   <i type="logical" name="LSYMGRAD"> F  </i>
   <i type="logical" name="LHFONE"> F  </i>
   <i type="logical" name="LRHFCALC"> F  </i>
   <i type="logical" name="LTHOMAS"> F  </i>
   <i type="logical" name="LMODELHF"> F  </i>
   <i name="ENCUT4O">     -1.00000000</i>
   <i type="int" name="EXXOEP">     0</i>
   <i type="int" name="FOURORBIT">     0</i>
   <i name="AEXX">      0.00000000</i>
   <i name="HFALPHA">      0.00000000</i>
   <i name="MCALPHA">      0.00000000</i>
   <i name="ALDAX">      1.00000000</i>
   <i name="AGGAX">      1.00000000</i>
   <i name="ALDAC">      1.00000000</i>
   <i name="AGGAC">      1.00000000</i>
   <i type="int" name="NKREDX">     1</i>
   <i type="int" name="NKREDY">     1</i>
   <i type="int" name="NKREDZ">     1</i>
   <i type="logical" name="SHIFTRED"> F  </i>
   <i type="logical" name="ODDONLY"> F  </i>
   <i type="logical" name="EVENONLY"> F  </i>
   <i type="int" name="LMAXFOCK">     0</i>
   <i type="int" name="NMAXFOCKAE">     0</i>
   <i type="logical" name="LFOCKAEDFT"> F  </i>
   <i name="HFSCREEN">      0.00000000</i>
   <i name="HFSCREENC">      0.00000000</i>
   <i type="int" name="NBANDSGWLOW">     0</i>
  </separator>
  <separator name="vdW DFT" >
   <i type="logical" name="LUSE_VDW"> F  </i>
   <i name="Zab_VDW">     -0.84910000</i>
   <i name="PARAM1">      0.12340000</i>
   <i name="PARAM2">      1.00000000</i>
   <i name="PARAM3">      0.00000000</i>
  </separator>
  <separator name="model GW" >
   <i type="int" name="MODEL_GW">     0</i>
   <i name="MODEL_EPS0">     30.82846644</i>
   <i name="MODEL_ALPHA">      1.00000000</i>
  </separator>
  <separator name="linear response parameters" >
   <i type="logical" name="LEPSILON"> F  </i>
   <i type="logical" name="LRPA"> F  </i>
   <i type="logical" name="LNABLA"> F  </i>
   <i type="logical" name="LVEL"> F  </i>
   <i type="int" name="KINTER">     0</i>
   <i name="CSHIFT">      0.10000000</i>
   <i name="OMEGAMAX">     -1.00000000</i>
   <i name="DEG_THRESHOLD">      0.00200000</i>
   <i name="RTIME">     -0.10000000</i>
   <i name="WPLASMAI">      0.00000000</i>
   <v name="DFIELD">      0.00000000      0.00000000      0.00000000</v>
   <v name="WPLASMA">      0.00000000      0.00000000      0.00000000      0.00000000      0.00000000      0.00000000      0.00000000      0.00000000      0.00000000</v>
  </separator>
  <separator name="orbital magnetization" >
   <i type="logical" name="NUCIND"> F  </i>
   <v name="MAGPOS">      0.00000000      0.00000000      0.00000000</v>
   <i type="logical" name="LNICSALL"> T  </i>
   <i type="logical" name="ORBITALMAG"> F  </i>
   <i type="logical" name="LMAGBLOCH"> F  </i>
   <i type="logical" name="LCHIMAG"> F  </i>
   <i type="logical" name="LGAUGE"> T  </i>
   <i type="int" name="MAGATOM">     0</i>
   <v name="MAGDIPOL">      0.00000000      0.00000000      0.00000000</v>
   <v name="AVECCONST">      0.00000000      0.00000000      0.00000000</v>
  </separator>
  <separator name="response functions" >
   <i type="logical" name="LADDER"> F  </i>
   <i type="logical" name="LRPAFORCE"> F  </i>
   <i type="logical" name="LFXC"> F  </i>
   <i type="logical" name="LHARTREE"> T  </i>
   <i type="int" name="IBSE">     0</i>
   <v type="int" name="KPOINT">    -1     0     0     0</v>
   <i type="logical" name="LTCTE"> F  </i>
   <i type="logical" name="LTETE"> F  </i>
   <i type="logical" name="LTRIPLET"> F  </i>
   <i type="logical" name="LFXCEPS"> F  </i>
   <i type="logical" name="LFXHEG"> F  </i>
   <i type="int" name="NATURALO">     2</i>
   <i type="logical" name="L2ORDER"> F  </i>
   <i type="logical" name="LMP2LT"> F  </i>
   <i type="logical" name="LUSEW"> F  </i>
   <i name="ENCUTGW">     -2.00000000</i>
   <i name="ENCUTGWSOFT">     -2.00000000</i>
   <i name="ENCUTLF">     -1.00000000</i>
   <i type="int" name="LMAXMP2">    -1</i>
   <i name="SCISSOR">      0.00000000</i>
   <i type="int" name="NOMEGA">     0</i>
   <i type="int" name="NOMEGAR">     0</i>
   <i type="int" name="NBANDSGW">    -1</i>
   <i type="int" name="NBANDSO">    -1</i>
   <i type="int" name="NBANDSV">    -1</i>
   <i type="int" name="NELM">   300</i>
   <i type="int" name="NELMHF">     1</i>
   <i type="int" name="DIM">     3</i>
   <i type="int" name="ANTIRES">     0</i>
   <i name="OMEGAMAX">    -30.00000000</i>
   <i name="OMEGAMIN">    -30.00000000</i>
   <i name="OMEGATL">   -200.00000000</i>
   <i type="int" name="OMEGAGRID">   140</i>
   <i name="CSHIFT">     -0.10000000</i>
   <i type="logical" name="SELFENERGY"> F  </i>
   <i type="logical" name="LSPECTRAL"> F  </i>
   <i type="logical" name="LSPECTRALGW"> F  </i>
   <i type="logical" name="LSINGLES"> F  </i>
   <i type="logical" name="LFERMIGW"> F  </i>
   <i type="logical" name="ODDONLYGW"> F  </i>
   <i type="logical" name="EVENONLYGW"> F  </i>
   <i type="int" name="NKREDLFX">     1</i>
   <i type="int" name="NKREDLFY">     1</i>
   <i type="int" name="NKREDLFZ">     1</i>
   <i type="int" name="MAXMEM">  2800</i>
   <i type="int" name="TELESCOPE">     0</i>
   <i type="int" name="TAUPAR">     1</i>
   <i type="int" name="OMEGAPAR">    -1</i>
   <i name="LAMBDA">      1.00000000</i>
  </separator>
  <separator name="External order field" >
   <i name="OFIELD_KAPPA">      0.00000000</i>
   <v name="OFIELD_K">      0.00000000      0.00000000      0.00000000</v>
   <i name="OFIELD_Q6_NEAR">      0.00000000</i>
   <i name="OFIELD_Q6_FAR">      0.00000000</i>
   <i name="OFIELD_A">      0.00000000</i>
  </separator>
 </parameters>
 <atominfo>
  <atoms>      51 </atoms>
  <types>       2 </types>
  <array name="atoms" >
   <dimension dim="1">ion</dimension>
   <field type="string">element</field>
   <field type="int">atomtype</field>
   <set>
    <rc><c>C </c><c>   1</c></rc>
    <rc><c>C </c><c>   1</c></rc>
    <rc><c>C </c><c>   1</c></rc>
    <rc><c>C </c><c>   1</c></rc>
    <rc><c>C </c><c>   1</c></rc>
    <rc><c>C </c><c>   1</c></rc>
    <rc><c>C </c><c>   1</c></rc>
    <rc><c>C </c><c>   1</c></rc>
    <rc><c>C </c><c>   1</c></rc>
    <rc><c>C </c><c>   1</c></rc>
    <rc><c>C </c><c>   1</c></rc>
    <rc><c>C </c><c>   1</c></rc>
    <rc><c>C </c><c>   1</c></rc>
    <rc><c>C </c><c>   1</c></rc>
    <rc><c>C </c><c>   1</c></rc>
    <rc><c>C </c><c>   1</c></rc>
    <rc><c>C </c><c>   1</c></rc>
    <rc><c>C </c><c>   1</c></rc>
    <rc><c>C </c><c>   1</c></rc>
    <rc><c>C </c><c>   1</c></rc>
    <rc><c>C </c><c>   1</c></rc>
    <rc><c>C </c><c>   1</c></rc>
    <rc><c>C </c><c>   1</c></rc>
    <rc><c>C </c><c>   1</c></rc>
    <rc><c>C </c><c>   1</c></rc>
    <rc><c>C </c><c>   1</c></rc>
    <rc><c>C </c><c>   1</c></rc>
    <rc><c>C </c><c>   1</c></rc>
    <rc><c>C </c><c>   1</c></rc>
    <rc><c>C </c><c>   1</c></rc>
    <rc><c>C </c><c>   1</c></rc>
    <rc><c>C </c><c>   1</c></rc>
    <rc><c>C </c><c>   1</c></rc>
    <rc><c>C </c><c>   1</c></rc>
    <rc><c>C </c><c>   1</c></rc>
    <rc><c>C </c><c>   1</c></rc>
    <rc><c>C </c><c>   1</c></rc>
    <rc><c>C </c><c>   1</c></rc>
    <rc><c>C </c><c>   1</c></rc>
    <rc><c>C </c><c>   1</c></rc>
    <rc><c>C </c><c>   1</c></rc>
    <rc><c>C </c><c>   1</c></rc>
    <rc><c>C </c><c>   1</c></rc>
    <rc><c>C </c><c>   1</c></rc>
    <rc><c>C </c><c>   1</c></rc>
    <rc><c>C </c><c>   1</c></rc>
    <rc><c>C </c><c>   1</c></rc>
    <rc><c>C </c><c>   1</c></rc>
    <rc><c>C </c><c>   1</c></rc>
    <rc><c>C </c><c>   1</c></rc>
    <rc><c>O </c><c>   2</c></rc>
   </set>
  </array>
  <array name="atomtypes" >
   <dimension dim="1">type</dimension>
   <field type="int">atomspertype</field>
   <field type="string">element</field>
   <field>mass</field>
   <field>valence</field>
   <field type="string">pseudopotential</field>
   <set>
    <rc><c>  50</c><c>C </c><c>     12.01100000</c><c>      4.00000000</c><c>  PAW_PBE C 08Apr2002                   </c></rc>
    <rc><c>   1</c><c>O </c><c>     16.00000000</c><c>      6.00000000</c><c>  PAW_PBE O 08Apr2002                   </c></rc>
   </set>
  </array>
 </atominfo>
 <structure name="initialpos" >
  <crystal>
   <varray name="basis" >
    <v>      12.30000019       0.00000000       0.00000000 </v>
    <v>       6.15000080      10.65211222       0.00000000 </v>
    <v>       0.00000000       0.00000000      20.00000000 </v>
   </varray>
   <i name="volume">   2620.41964732 </i>
   <varray name="rec_basis" >
    <v>       0.08130081      -0.04693905       0.00000000 </v>
    <v>       0.00000000       0.09387809       0.00000000 </v>
    <v>       0.00000000       0.00000000       0.05000000 </v>
   </varray>
  </crystal>
  <varray name="positions" >
   <v>       0.00000000       0.00000000       0.41799748 </v>
   <v>       0.20000000       0.00000000       0.41799748 </v>
   <v>       0.40000000       0.00000000       0.41799748 </v>
   <v>       0.60000000       0.00000000       0.41749748 </v>
   <v>       0.80000000       0.00000000       0.41799748 </v>
   <v>       0.00000000       0.20000000       0.41799748 </v>
   <v>       0.20000000       0.20000000       0.41799748 </v>
   <v>       0.40000000       0.20000000       0.41799748 </v>
   <v>       0.60000000       0.20000000       0.41799748 </v>
   <v>       0.80000000       0.20000000       0.41799748 </v>
   <v>       0.00000000       0.40000000       0.41799748 </v>
   <v>       0.20000000       0.40000000       0.41799748 </v>
   <v>       0.40000000       0.40000000       0.41799748 </v>
   <v>       0.60000000       0.40000000       0.41799748 </v>
   <v>       0.80000000       0.40000000       0.41799748 </v>
   <v>       0.00000000       0.60000000       0.41799748 </v>
   <v>       0.20000000       0.60000000       0.41799748 </v>
   <v>       0.40000000       0.60000000       0.41799748 </v>
   <v>       0.60000000       0.60000000       0.41799748 </v>
   <v>       0.80000000       0.60000000       0.41799748 </v>
   <v>       0.00000000       0.80000000       0.41799748 </v>
   <v>       0.20000000       0.80000000       0.41799748 </v>
   <v>       0.40000000       0.80000000       0.41799748 </v>
   <v>       0.60000000       0.80000000       0.41799748 </v>
   <v>       0.80000000       0.80000000       0.41799748 </v>
   <v>       0.06666667       0.06666660       0.41800609 </v>
   <v>       0.26666667       0.06666660       0.41800609 </v>
   <v>       0.46666667       0.06666660       0.41800609 </v>
   <v>       0.66666667       0.06666660       0.41800609 </v>
   <v>       0.86666667       0.06666660       0.41800609 </v>
   <v>       0.06666667       0.26666660       0.41800609 </v>
   <v>       0.26666667       0.26666660       0.41800609 </v>
   <v>       0.46666667       0.26666660       0.41800609 </v>
   <v>       0.66666667       0.26666660       0.41800609 </v>
   <v>       0.86666667       0.26666660       0.41800609 </v>
   <v>       0.06666667       0.46666660       0.41800609 </v>
   <v>       0.26666667       0.46666660       0.41800609 </v>
   <v>       0.46666667       0.46666660       0.41800609 </v>
   <v>       0.66666667       0.46666660       0.41800609 </v>
   <v>       0.86666667       0.46666660       0.41800609 </v>
   <v>       0.06666667       0.66666660       0.41800609 </v>
   <v>       0.26666667       0.66666660       0.41800609 </v>
   <v>       0.46666667       0.66666660       0.41800609 </v>
   <v>       0.66666667       0.66666660       0.41800609 </v>
   <v>       0.86666667       0.66666660       0.41800609 </v>
   <v>       0.06666667       0.86666660       0.41800609 </v>
   <v>       0.26666667       0.86666660       0.41800609 </v>
   <v>       0.46666667       0.86666660       0.41800609 </v>
   <v>       0.66666667       0.86666660       0.41800609 </v>
   <v>       0.86666667       0.86666660       0.41800609 </v>
   <v>       0.40000000       0.40000000       0.46800609 </v>
  </varray>
  <varray name="velocities" >
   <v>       0.00000000       0.00000000       0.00000000 </v>
   <v>       0.00000000       0.00000000       0.00000000 </v>
   <v>       0.00000000       0.00000000       0.00000000 </v>
   <v>       0.00000000       0.00000000       0.00000000 </v>
   <v>       0.00000000       0.00000000       0.00000000 </v>
   <v>       0.00000000       0.00000000       0.00000000 </v>
   <v>       0.00000000       0.00000000       0.00000000 </v>
   <v>       0.00000000       0.00000000       0.00000000 </v>
   <v>       0.00000000       0.00000000       0.00000000 </v>
   <v>       0.00000000       0.00000000       0.00000000 </v>
   <v>       0.00000000       0.00000000       0.00000000 </v>
   <v>       0.00000000       0.00000000       0.00000000 </v>
   <v>       0.00000000       0.00000000       0.00000000 </v>
   <v>       0.00000000       0.00000000       0.00000000 </v>
   <v>       0.00000000       0.00000000       0.00000000 </v>
   <v>       0.00000000       0.00000000       0.00000000 </v>
   <v>       0.00000000       0.00000000       0.00000000 </v>
   <v>       0.00000000       0.00000000       0.00000000 </v>
   <v>       0.00000000       0.00000000       0.00000000 </v>
   <v>       0.00000000       0.00000000       0.00000000 </v>
   <v>       0.00000000       0.00000000       0.00000000 </v>
   <v>       0.00000000       0.00000000       0.00000000 </v>
   <v>       0.00000000       0.00000000       0.00000000 </v>
   <v>       0.00000000       0.00000000       0.00000000 </v>
   <v>       0.00000000       0.00000000       0.00000000 </v>
   <v>       0.00000000       0.00000000       0.00000000 </v>
   <v>       0.00000000       0.00000000       0.00000000 </v>
   <v>       0.00000000       0.00000000       0.00000000 </v>
   <v>       0.00000000       0.00000000       0.00000000 </v>
   <v>       0.00000000       0.00000000       0.00000000 </v>
   <v>       0.00000000       0.00000000       0.00000000 </v>
   <v>       0.00000000       0.00000000       0.00000000 </v>
   <v>       0.00000000       0.00000000       0.00000000 </v>
   <v>       0.00000000       0.00000000       0.00000000 </v>
   <v>       0.00000000       0.00000000       0.00000000 </v>
   <v>       0.00000000       0.00000000       0.00000000 </v>
   <v>       0.00000000       0.00000000       0.00000000 </v>
   <v>       0.00000000       0.00000000       0.00000000 </v>
   <v>       0.00000000       0.00000000       0.00000000 </v>
   <v>       0.00000000       0.00000000       0.00000000 </v>
   <v>       0.00000000       0.00000000       0.00000000 </v>
   <v>       0.00000000       0.00000000       0.00000000 </v>
   <v>       0.00000000       0.00000000       0.00000000 </v>
   <v>       0.00000000       0.00000000       0.00000000 </v>
   <v>       0.00000000       0.00000000       0.00000000 </v>
   <v>       0.00000000       0.00000000       0.00000000 </v>
   <v>       0.00000000       0.00000000       0.00000000 </v>
   <v>       0.00000000       0.00000000       0.00000000 </v>
   <v>       0.00000000       0.00000000       0.00000000 </v>
   <v>       0.00000000       0.00000000       0.00000000 </v>
   <v>       0.00000000       0.00000000       0.00000000 </v>
  </varray>
 </structure>
 <calculation>
  <scstep>
   <time name="dav">    3.32    3.32</time>
   <time name="total">    3.84    3.85</time>
   <energy>
    <i name="alphaZ">     82.54348252 </i>
    <i name="ewald">  34516.46463503 </i>
    <i name="hartreedc"> -41034.78002736 </i>
    <i name="XCdc">    721.37969411 </i>
    <i name="pawpsdc">  22781.19595426 </i>
    <i name="pawaedc"> -22817.52509957 </i>
    <i name="eentropy">     -0.00014893 </i>
    <i name="bandstr">  -2492.03686377 </i>
    <i name="atom">   7788.62438962 </i>
    <i name="e_fr_energy">   -454.13398409 </i>
    <i name="e_wo_entrp">   -454.13383516 </i>
    <i name="e_0_energy">   -454.13390962 </i>
   </energy>
  </scstep>
  <scstep>
   <time name="diag">    0.63    0.63</time>
   <time name="diis">    2.98    2.98</time>
   <time name="orth">    0.03    0.03</time>
   <time name="total">    4.14    4.14</time>
   <energy>
    <i name="e_fr_energy">   -454.32800300 </i>
    <i name="e_wo_entrp">   -454.32789486 </i>
    <i name="e_0_energy">   -454.32794893 </i>
   </energy>
  </scstep>
  <scstep>
   <time name="diag">    0.63    0.63</time>
   <time name="diis">    3.34    3.35</time>
   <time name="orth">    0.03    0.03</time>
   <time name="total">    4.50    4.51</time>
   <energy>
    <i name="e_fr_energy">   -454.33937492 </i>
    <i name="e_wo_entrp">   -454.33925743 </i>
    <i name="e_0_energy">   -454.33931617 </i>
   </energy>
  </scstep>
  <scstep>
   <time name="diag">    0.64    0.64</time>
   <time name="diis">    2.72    2.72</time>
   <time name="orth">    0.03    0.03</time>
   <time name="total">    3.88    3.89</time>
   <energy>
    <i name="e_fr_energy">   -454.34008489 </i>
    <i name="e_wo_entrp">   -454.33997351 </i>
    <i name="e_0_energy">   -454.34002920 </i>
   </energy>
  </scstep>
  <scstep>
   <time name="diag">    0.63    0.63</time>
   <time name="diis">    2.98    2.98</time>
   <time name="orth">    0.03    0.03</time>
   <time name="total">    4.13    4.14</time>
   <energy>
    <i name="e_fr_energy">   -454.34013702 </i>
    <i name="e_wo_entrp">   -454.34002180 </i>
    <i name="e_0_energy">   -454.34007941 </i>
   </energy>
  </scstep>
  <scstep>
   <time name="diag">    0.64    0.64</time>
   <time name="diis">    2.31    2.31</time>
   <time name="orth">    0.03    0.03</time>
   <time name="total">    3.16    3.16</time>
   <energy>
    <i name="alphaZ">     82.54348252 </i>
    <i name="ewald">  34516.46463503 </i>
    <i name="hartreedc"> -41034.79977503 </i>
    <i name="XCdc">    721.38121609 </i>
    <i name="pawpsdc">  22780.07806852 </i>
    <i name="pawaedc"> -22816.40804564 </i>
    <i name="eentropy">     -0.00011448 </i>
    <i name="bandstr">  -2492.22399900 </i>
    <i name="atom">   7788.62438962 </i>
    <i name="e_fr_energy">   -454.34014237 </i>
    <i name="e_wo_entrp">   -454.34002789 </i>
    <i name="e_0_energy">   -454.34008513 </i>
   </energy>
  </scstep>
  <structure>
   <crystal>
    <varray name="basis" >
     <v>      12.30000019       0.00000000       0.00000000 </v>
     <v>       6.15000080      10.65211222       0.00000000 </v>
     <v>       0.00000000       0.00000000      20.00000000 </v>
    </varray>
    <i name="volume">   2620.41964732 </i>
    <varray name="rec_basis" >
     <v>       0.08130081      -0.04693905       0.00000000 </v>
     <v>       0.00000000       0.09387809       0.00000000 </v>
     <v>       0.00000000       0.00000000       0.05000000 </v>
    </varray>
   </crystal>
   <varray name="positions" >
    <v>       0.00000000       0.00000000       0.41799748 </v>
    <v>       0.20000000       0.00000000       0.41799748 </v>
    <v>       0.40000000       0.00000000       0.41799748 </v>
    <v>       0.60000000       0.00000000       0.41749748 </v>
    <v>       0.80000000       0.00000000       0.41799748 </v>
    <v>       0.00000000       0.20000000       0.41799748 </v>
    <v>       0.20000000       0.20000000       0.41799748 </v>
    <v>       0.40000000       0.20000000       0.41799748 </v>
    <v>       0.60000000       0.20000000       0.41799748 </v>
    <v>       0.80000000       0.20000000       0.41799748 </v>
    <v>       0.00000000       0.40000000       0.41799748 </v>
    <v>       0.20000000       0.40000000       0.41799748 </v>
    <v>       0.40000000       0.40000000       0.41799748 </v>
    <v>       0.60000000       0.40000000       0.41799748 </v>
    <v>       0.80000000       0.40000000       0.41799748 </v>
    <v>       0.00000000       0.60000000       0.41799748 </v>
    <v>       0.20000000       0.60000000       0.41799748 </v>
    <v>       0.40000000       0.60000000       0.41799748 </v>
    <v>       0.60000000       0.60000000       0.41799748 </v>
    <v>       0.80000000       0.60000000       0.41799748 </v>
    <v>       0.00000000       0.80000000       0.41799748 </v>
    <v>       0.20000000       0.80000000       0.41799748 </v>
    <v>       0.40000000       0.80000000       0.41799748 </v>
    <v>       0.60000000       0.80000000       0.41799748 </v>
    <v>       0.80000000       0.80000000       0.41799748 </v>
    <v>       0.06666667       0.06666660       0.41800609 </v>
    <v>       0.26666667       0.06666660       0.41800609 </v>
    <v>       0.46666667       0.06666660       0.41800609 </v>
    <v>       0.66666667       0.06666660       0.41800609 </v>
    <v>       0.86666667       0.06666660       0.41800609 </v>
    <v>       0.06666667       0.26666660       0.41800609 </v>
    <v>       0.26666667       0.26666660       0.41800609 </v>
    <v>       0.46666667       0.26666660       0.41800609 </v>
    <v>       0.66666667       0.26666660       0.41800609 </v>
    <v>       0.86666667       0.26666660       0.41800609 </v>
    <v>       0.06666667       0.46666660       0.41800609 </v>
    <v>       0.26666667       0.46666660       0.41800609 </v>
    <v>       0.46666667       0.46666660       0.41800609 </v>
    <v>       0.66666667       0.46666660       0.41800609 </v>
    <v>       0.86666667       0.46666660       0.41800609 </v>
    <v>       0.06666667       0.66666660       0.41800609 </v>
    <v>       0.26666667       0.66666660       0.41800609 </v>
    <v>       0.46666667       0.66666660       0.41800609 </v>
    <v>       0.66666667       0.66666660       0.41800609 </v>
    <v>       0.86666667       0.66666660       0.41800609 </v>
    <v>       0.06666667       0.86666660       0.41800609 </v>
    <v>       0.26666667       0.86666660       0.41800609 </v>
    <v>       0.46666667       0.86666660       0.41800609 </v>
    <v>       0.66666667       0.86666660       0.41800609 </v>
    <v>       0.86666667       0.86666660       0.41800609 </v>
    <v>       0.40000000       0.40000000       0.46800609 </v>
   </varray>
  </structure>
  <varray name="forces" >
   <v>      -0.04753651      -0.02769288       0.00954831 </v>
   <v>       0.04753651      -0.02769288       0.00954831 </v>
   <v>      -0.15921470       0.01451879      -0.02139787 </v>
   <v>      -0.00000001      -0.20785623       0.10987647 </v>
   <v>       0.15921470       0.01451879      -0.02139787 </v>
   <v>       0.00000000       0.05484576       0.00952101 </v>
   <v>       0.42881971       0.24754661      -0.00076176 </v>
   <v>       0.09555716      -0.20410839       0.17099134 </v>
   <v>      -0.09555719      -0.20410839       0.17099134 </v>
   <v>      -0.42881968       0.24754661      -0.00076176 </v>
   <v>      -0.06713529      -0.14509457      -0.02585801 </v>
   <v>      -0.12984290       0.18442965       0.16510741 </v>
   <v>       0.00000000       0.00058021     -48.15821403 </v>
   <v>       0.12984292       0.18442965       0.16510741 </v>
   <v>       0.06713527      -0.14509457      -0.02585801 </v>
   <v>      -0.17977349       0.10376554      -0.02691611 </v>
   <v>      -0.22477521       0.02026413       0.16495438 </v>
   <v>       0.22477521       0.02026413       0.16495438 </v>
   <v>       0.17977351       0.10376554      -0.02691611 </v>
   <v>      -0.00000000      -0.01334513       0.01711646 </v>
   <v>       0.09210835       0.13066984      -0.02682246 </v>
   <v>      -0.00000003      -0.49520117       0.00015860 </v>
   <v>      -0.09210833       0.13066984      -0.02682246 </v>
   <v>      -0.01146360       0.00637897       0.02334620 </v>
   <v>       0.01146360       0.00637897       0.02334620 </v>
   <v>       0.00000000       0.00016117      -0.00655432 </v>
   <v>       0.09725530      -0.21719155       0.01492252 </v>
   <v>       0.19515670       0.24965964       0.19594416 </v>
   <v>      -0.19515666       0.24965964       0.19594416 </v>
   <v>      -0.09725533      -0.21719155       0.01492252 </v>
   <v>      -0.13958958       0.19274613       0.00967399 </v>
   <v>      -0.44173684      -0.25512883      -0.35036730 </v>
   <v>      -0.00000034      -5.07692595      -4.35227743 </v>
   <v>       0.44173680      -0.25512883      -0.35036730 </v>
   <v>       0.13958961       0.19274613       0.00967399 </v>
   <v>       0.31395155       0.04318722       0.25640998 </v>
   <v>      -4.39602750       2.53825970      -4.34867673 </v>
   <v>       4.39602784       2.53825970      -4.34867673 </v>
   <v>      -0.31395154       0.04318722       0.25640998 </v>
   <v>       0.00000001       0.08225008      -0.02239717 </v>
   <v>       0.11970188      -0.29342656       0.25708831 </v>
   <v>       0.00000003       0.50995894      -0.35548453 </v>
   <v>      -0.11970192      -0.29342656       0.25708831 </v>
   <v>      -0.08242264      -0.04718207      -0.02177127 </v>
   <v>       0.08242264      -0.04718207      -0.02177127 </v>
   <v>      -0.23674871       0.02456457       0.01024552 </v>
   <v>       0.23674872       0.02456457       0.01024552 </v>
   <v>       0.07114767      -0.04125630      -0.02563117 </v>
   <v>       0.00000001       0.09544995      -0.08580639 </v>
   <v>      -0.07114767      -0.04125630      -0.02563117 </v>
   <v>       0.00000000       0.00026307      59.98400241 </v>
  </varray>
  <varray name="stress" >
   <v>       9.51121606       0.00000063       0.00000000 </v>
   <v>       0.00000063       9.51155333       0.00164359 </v>
   <v>       0.00000000       0.00164357      31.94560608 </v>
  </varray>
  <energy>
   <i name="e_fr_energy">   -454.34014237 </i>
   <i name="e_wo_entrp">   -454.34008513 </i>
   <i name="e_0_energy">     -0.00011448 </i>
  </energy>
  <time name="totalsc">   29.07   29.10</time>
  <eigenvalues>
   <array>
    <dimension dim="1">band</dimension>
    <dimension dim="2">kpoint</dimension>
    <dimension dim="3">spin</dimension>
    <field>eigene</field>
    <field>occ</field>
    <set>
     <set comment="spin 1">
      <set comment="kpoint 1">
       <r>  -31.7401    1.0000 </r>
       <r>  -22.2710    1.0000 </r>
       <r>  -21.5030    1.0000 </r>
       <r>  -21.5030    1.0000 </r>
       <r>  -21.3944    1.0000 </r>
       <r>  -21.3944    1.0000 </r>
       <r>  -21.3939    1.0000 </r>
       <r>  -20.8742    1.0000 </r>
       <r>  -19.8766    1.0000 </r>
       <r>  -19.8765    1.0000 </r>
       <r>  -19.5492    1.0000 </r>
       <r>  -19.5491    1.0000 </r>
       <r>  -19.5389    1.0000 </r>
       <r>  -19.1913    1.0000 </r>
       <r>  -18.9010    1.0000 </r>
       <r>  -18.9010    1.0000 </r>
       <r>  -18.6436    1.0000 </r>
       <r>  -18.6430    1.0000 </r>
       <r>  -18.6430    1.0000 </r>
       <r>  -17.8842    1.0000 </r>
       <r>  -17.0214    1.0000 </r>
       <r>  -17.0214    1.0000 </r>
       <r>  -16.4778    1.0000 </r>
       <r>  -16.4581    1.0000 </r>
       <r>  -16.4581    1.0000 </r>
       <r>  -16.0495    1.0000 </r>
       <r>  -15.9967    1.0000 </r>
       <r>  -15.9966    1.0000 </r>
       <r>  -15.4975    1.0000 </r>
       <r>  -15.4974    1.0000 </r>
       <r>  -15.4929    1.0000 </r>
       <r>  -15.0897    1.0000 </r>
       <r>  -14.6293    1.0000 </r>
       <r>  -14.6293    1.0000 </r>
       <r>  -14.1497    1.0000 </r>
       <r>  -14.1497    1.0000 </r>
       <r>  -14.1431    1.0000 </r>
       <r>  -13.9646    1.0000 </r>
       <r>  -12.9911    1.0000 </r>
       <r>  -12.9910    1.0000 </r>
       <r>  -12.0313    1.0000 </r>
       <r>  -11.7648    1.0000 </r>
       <r>  -11.7648    1.0000 </r>
       <r>  -11.7617    1.0000 </r>
       <r>  -11.6903    1.0000 </r>
       <r>  -11.6903    1.0000 </r>
       <r>  -11.6516    1.0000 </r>
       <r>  -11.6497    1.0000 </r>
       <r>  -11.6497    1.0000 </r>
       <r>  -11.6488    1.0000 </r>
       <r>  -10.8020    1.0000 </r>
       <r>  -10.8020    1.0000 </r>
       <r>  -10.4287    1.0000 </r>
       <r>  -10.3342    1.0000 </r>
       <r>  -10.2888    1.0000 </r>
       <r>  -10.2887    1.0000 </r>
       <r>  -10.2706    1.0000 </r>
       <r>  -10.0780    1.0000 </r>
       <r>   -9.6858    1.0000 </r>
       <r>   -9.6852    1.0000 </r>
       <r>   -9.3258    1.0000 </r>
       <r>   -9.3257    1.0000 </r>
       <r>   -9.3003    1.0000 </r>
       <r>   -9.2794    1.0000 </r>
       <r>   -9.2788    1.0000 </r>
       <r>   -9.0459    1.0000 </r>
       <r>   -9.0047    1.0000 </r>
       <r>   -9.0047    1.0000 </r>
       <r>   -8.9486    1.0000 </r>
       <r>   -8.9408    1.0000 </r>
       <r>   -8.9403    1.0000 </r>
       <r>   -8.9399    1.0000 </r>
       <r>   -8.9190    1.0000 </r>
       <r>   -8.9189    1.0000 </r>
       <r>   -8.8914    1.0000 </r>
       <r>   -8.4380    1.0000 </r>
       <r>   -7.8027    1.0000 </r>
       <r>   -7.8017    1.0000 </r>
       <r>   -7.3261    1.0000 </r>
       <r>   -7.3244    1.0000 </r>
       <r>   -7.3099    1.0000 </r>
       <r>   -7.3007    1.0000 </r>
       <r>   -7.2988    1.0000 </r>
       <r>   -7.2971    1.0000 </r>
       <r>   -7.1608    1.0000 </r>
       <r>   -7.1608    1.0000 </r>
       <r>   -7.1547    1.0000 </r>
       <r>   -6.7513    1.0000 </r>
       <r>   -6.5090    1.0000 </r>
       <r>   -6.5072    1.0000 </r>
       <r>   -6.2669    1.0000 </r>
       <r>   -6.2465    1.0000 </r>
       <r>   -6.2464    1.0000 </r>
       <r>   -5.9216    1.0000 </r>
       <r>   -5.9210    1.0000 </r>
       <r>   -5.1957    1.0000 </r>
       <r>   -4.7646    1.0000 </r>
       <r>   -4.7641    1.0000 </r>
       <r>   -4.2705    1.0000 </r>
       <r>   -4.2663    1.0000 </r>
       <r>   -4.2663    1.0000 </r>
       <r>   -3.2147    1.0000 </r>
       <r>   -3.2146    1.0000 </r>
       <r>   -2.9162    0.0021 </r>
       <r>   -1.4612    0.0000 </r>
       <r>   -1.4570    0.0000 </r>
       <r>   -1.4570    0.0000 </r>
       <r>   -0.9912    0.0000 </r>
       <r>   -0.9912    0.0000 </r>
       <r>   -0.5429    0.0000 </r>
       <r>    0.4167    0.0000 </r>
       <r>    0.4218    0.0000 </r>
       <r>    0.4218    0.0000 </r>
       <r>    0.5650    0.0000 </r>
       <r>    0.8432    0.0000 </r>
       <r>    0.8437    0.0000 </r>
       <r>    1.2940    0.0000 </r>
       <r>    1.3438    0.0000 </r>
       <r>    1.6737    0.0000 </r>
       <r>    1.8045    0.0000 </r>
       <r>    1.8047    0.0000 </r>
       <r>    1.8050    0.0000 </r>
       <r>    1.8290    0.0000 </r>
       <r>    1.8292    0.0000 </r>
       <r>    2.0333    0.0000 </r>
       <r>    2.1767    0.0000 </r>
       <r>    2.1795    0.0000 </r>
       <r>    2.1796    0.0000 </r>
       <r>    2.3472    0.0000 </r>
       <r>    2.3478    0.0000 </r>
       <r>    2.6234    0.0000 </r>
       <r>    2.6494    0.0000 </r>
      </set>
      <set comment="kpoint 2">
       <r>  -31.7402    1.0000 </r>
       <r>  -22.1890    1.0000 </r>
       <r>  -21.8693    1.0000 </r>
       <r>  -21.6612    1.0000 </r>
       <r>  -21.4545    1.0000 </r>
       <r>  -21.0347    1.0000 </r>
       <r>  -20.8972    1.0000 </r>
       <r>  -20.7274    1.0000 </r>
       <r>  -20.4201    1.0000 </r>
       <r>  -20.1622    1.0000 </r>
       <r>  -19.7869    1.0000 </r>
       <r>  -19.6991    1.0000 </r>
       <r>  -19.3263    1.0000 </r>
       <r>  -19.2429    1.0000 </r>
       <r>  -19.0617    1.0000 </r>
       <r>  -18.5928    1.0000 </r>
       <r>  -18.4579    1.0000 </r>
       <r>  -18.1213    1.0000 </r>
       <r>  -18.0630    1.0000 </r>
       <r>  -17.5909    1.0000 </r>
       <r>  -17.4978    1.0000 </r>
       <r>  -17.3008    1.0000 </r>
       <r>  -17.2766    1.0000 </r>
       <r>  -16.8514    1.0000 </r>
       <r>  -16.6584    1.0000 </r>
       <r>  -16.1762    1.0000 </r>
       <r>  -15.9779    1.0000 </r>
       <r>  -15.8476    1.0000 </r>
       <r>  -15.2983    1.0000 </r>
       <r>  -15.1698    1.0000 </r>
       <r>  -15.1342    1.0000 </r>
       <r>  -14.8848    1.0000 </r>
       <r>  -14.7818    1.0000 </r>
       <r>  -14.4781    1.0000 </r>
       <r>  -14.4560    1.0000 </r>
       <r>  -13.7672    1.0000 </r>
       <r>  -13.7599    1.0000 </r>
       <r>  -13.1961    1.0000 </r>
       <r>  -13.0894    1.0000 </r>
       <r>  -12.9342    1.0000 </r>
       <r>  -12.9044    1.0000 </r>
       <r>  -12.5852    1.0000 </r>
       <r>  -12.5500    1.0000 </r>
       <r>  -12.3900    1.0000 </r>
       <r>  -12.0221    1.0000 </r>
       <r>  -11.6634    1.0000 </r>
       <r>  -11.4474    1.0000 </r>
       <r>  -11.2962    1.0000 </r>
       <r>  -11.1217    1.0000 </r>
       <r>  -10.9143    1.0000 </r>
       <r>  -10.8501    1.0000 </r>
       <r>  -10.5842    1.0000 </r>
       <r>  -10.5327    1.0000 </r>
       <r>  -10.2852    1.0000 </r>
       <r>  -10.2372    1.0000 </r>
       <r>  -10.1613    1.0000 </r>
       <r>  -10.0488    1.0000 </r>
       <r>   -9.8535    1.0000 </r>
       <r>   -9.8202    1.0000 </r>
       <r>   -9.6541    1.0000 </r>
       <r>   -9.6070    1.0000 </r>
       <r>   -9.5607    1.0000 </r>
       <r>   -9.5273    1.0000 </r>
       <r>   -9.3712    1.0000 </r>
       <r>   -9.3401    1.0000 </r>
       <r>   -9.2594    1.0000 </r>
       <r>   -9.1757    1.0000 </r>
       <r>   -9.0997    1.0000 </r>
       <r>   -9.0822    1.0000 </r>
       <r>   -8.8650    1.0000 </r>
       <r>   -8.7129    1.0000 </r>
       <r>   -8.6647    1.0000 </r>
       <r>   -8.5053    1.0000 </r>
       <r>   -8.4022    1.0000 </r>
       <r>   -8.2867    1.0000 </r>
       <r>   -8.1334    1.0000 </r>
       <r>   -8.0937    1.0000 </r>
       <r>   -8.0660    1.0000 </r>
       <r>   -7.9714    1.0000 </r>
       <r>   -7.8078    1.0000 </r>
       <r>   -7.6206    1.0000 </r>
       <r>   -7.3600    1.0000 </r>
       <r>   -7.3358    1.0000 </r>
       <r>   -7.2673    1.0000 </r>
       <r>   -7.1983    1.0000 </r>
       <r>   -6.9201    1.0000 </r>
       <r>   -6.8737    1.0000 </r>
       <r>   -6.6908    1.0000 </r>
       <r>   -6.5910    1.0000 </r>
       <r>   -6.3483    1.0000 </r>
       <r>   -6.1844    1.0000 </r>
       <r>   -6.0736    1.0000 </r>
       <r>   -5.9217    1.0000 </r>
       <r>   -5.7393    1.0000 </r>
       <r>   -5.6405    1.0000 </r>
       <r>   -5.3225    1.0000 </r>
       <r>   -5.1154    1.0000 </r>
       <r>   -4.9701    1.0000 </r>
       <r>   -4.9225    1.0000 </r>
       <r>   -4.2699    1.0000 </r>
       <r>   -4.1690    1.0000 </r>
       <r>   -3.3366    1.0000 </r>
       <r>   -3.1368    0.9996 </r>
       <r>   -2.8038    0.0000 </r>
       <r>   -1.5912    0.0000 </r>
       <r>   -1.4236    0.0000 </r>
       <r>   -0.8400    0.0000 </r>
       <r>   -0.8191    0.0000 </r>
       <r>   -0.7061    0.0000 </r>
       <r>   -0.6679    0.0000 </r>
       <r>   -0.1287    0.0000 </r>
       <r>   -0.0062    0.0000 </r>
       <r>    0.2926    0.0000 </r>
       <r>    0.7070    0.0000 </r>
       <r>    0.7271    0.0000 </r>
       <r>    1.0990    0.0000 </r>
       <r>    1.1782    0.0000 </r>
       <r>    1.3640    0.0000 </r>
       <r>    1.4677    0.0000 </r>
       <r>    1.5399    0.0000 </r>
       <r>    1.5726    0.0000 </r>
       <r>    1.6383    0.0000 </r>
       <r>    1.8228    0.0000 </r>
       <r>    1.9177    0.0000 </r>
       <r>    2.0396    0.0000 </r>
       <r>    2.2216    0.0000 </r>
       <r>    2.2642    0.0000 </r>
       <r>    2.3337    0.0000 </r>
       <r>    2.3451    0.0000 </r>
       <r>    2.3984    0.0000 </r>
       <r>    2.4606    0.0000 </r>
       <r>    2.7999    0.0000 </r>
      </set>
      <set comment="kpoint 3">
       <r>  -31.7402    1.0000 </r>
       <r>  -22.1890    1.0000 </r>
       <r>  -21.8693    1.0000 </r>
       <r>  -21.6613    1.0000 </r>
       <r>  -21.4545    1.0000 </r>
       <r>  -21.0347    1.0000 </r>
       <r>  -20.8972    1.0000 </r>
       <r>  -20.7274    1.0000 </r>
       <r>  -20.4201    1.0000 </r>
       <r>  -20.1622    1.0000 </r>
       <r>  -19.7869    1.0000 </r>
       <r>  -19.6991    1.0000 </r>
       <r>  -19.3263    1.0000 </r>
       <r>  -19.2429    1.0000 </r>
       <r>  -19.0617    1.0000 </r>
       <r>  -18.5928    1.0000 </r>
       <r>  -18.4579    1.0000 </r>
       <r>  -18.1213    1.0000 </r>
       <r>  -18.0630    1.0000 </r>
       <r>  -17.5909    1.0000 </r>
       <r>  -17.4978    1.0000 </r>
       <r>  -17.3008    1.0000 </r>
       <r>  -17.2766    1.0000 </r>
       <r>  -16.8514    1.0000 </r>
       <r>  -16.6584    1.0000 </r>
       <r>  -16.1761    1.0000 </r>
       <r>  -15.9779    1.0000 </r>
       <r>  -15.8477    1.0000 </r>
       <r>  -15.2983    1.0000 </r>
       <r>  -15.1698    1.0000 </r>
       <r>  -15.1342    1.0000 </r>
       <r>  -14.8848    1.0000 </r>
       <r>  -14.7818    1.0000 </r>
       <r>  -14.4781    1.0000 </r>
       <r>  -14.4560    1.0000 </r>
       <r>  -13.7672    1.0000 </r>
       <r>  -13.7600    1.0000 </r>
       <r>  -13.1961    1.0000 </r>
       <r>  -13.0894    1.0000 </r>
       <r>  -12.9342    1.0000 </r>
       <r>  -12.9045    1.0000 </r>
       <r>  -12.5852    1.0000 </r>
       <r>  -12.5500    1.0000 </r>
       <r>  -12.3901    1.0000 </r>
       <r>  -12.0221    1.0000 </r>
       <r>  -11.6634    1.0000 </r>
       <r>  -11.4473    1.0000 </r>
       <r>  -11.2961    1.0000 </r>
       <r>  -11.1218    1.0000 </r>
       <r>  -10.9142    1.0000 </r>
       <r>  -10.8501    1.0000 </r>
       <r>  -10.5842    1.0000 </r>
       <r>  -10.5327    1.0000 </r>
       <r>  -10.2855    1.0000 </r>
       <r>  -10.2368    1.0000 </r>
       <r>  -10.1613    1.0000 </r>
       <r>  -10.0494    1.0000 </r>
       <r>   -9.8531    1.0000 </r>
       <r>   -9.8203    1.0000 </r>
       <r>   -9.6538    1.0000 </r>
       <r>   -9.6067    1.0000 </r>
       <r>   -9.5599    1.0000 </r>
       <r>   -9.5271    1.0000 </r>
       <r>   -9.3716    1.0000 </r>
       <r>   -9.3403    1.0000 </r>
       <r>   -9.2603    1.0000 </r>
       <r>   -9.1756    1.0000 </r>
       <r>   -9.0995    1.0000 </r>
       <r>   -9.0829    1.0000 </r>
       <r>   -8.8643    1.0000 </r>
       <r>   -8.7136    1.0000 </r>
       <r>   -8.6644    1.0000 </r>
       <r>   -8.5059    1.0000 </r>
       <r>   -8.4026    1.0000 </r>
       <r>   -8.2861    1.0000 </r>
       <r>   -8.1318    1.0000 </r>
       <r>   -8.0949    1.0000 </r>
       <r>   -8.0674    1.0000 </r>
       <r>   -7.9714    1.0000 </r>
       <r>   -7.8070    1.0000 </r>
       <r>   -7.6206    1.0000 </r>
       <r>   -7.3598    1.0000 </r>
       <r>   -7.3355    1.0000 </r>
       <r>   -7.2655    1.0000 </r>
       <r>   -7.1977    1.0000 </r>
       <r>   -6.9203    1.0000 </r>
       <r>   -6.8719    1.0000 </r>
       <r>   -6.6942    1.0000 </r>
       <r>   -6.5922    1.0000 </r>
       <r>   -6.3472    1.0000 </r>
       <r>   -6.1863    1.0000 </r>
       <r>   -6.0722    1.0000 </r>
       <r>   -5.9216    1.0000 </r>
       <r>   -5.7386    1.0000 </r>
       <r>   -5.6409    1.0000 </r>
       <r>   -5.3228    1.0000 </r>
       <r>   -5.1151    1.0000 </r>
       <r>   -4.9701    1.0000 </r>
       <r>   -4.9226    1.0000 </r>
       <r>   -4.2700    1.0000 </r>
       <r>   -4.1689    1.0000 </r>
       <r>   -3.3366    1.0000 </r>
       <r>   -3.1367    0.9996 </r>
       <r>   -2.8038    0.0000 </r>
       <r>   -1.5912    0.0000 </r>
       <r>   -1.4237    0.0000 </r>
       <r>   -0.8399    0.0000 </r>
       <r>   -0.8191    0.0000 </r>
       <r>   -0.7060    0.0000 </r>
       <r>   -0.6679    0.0000 </r>
       <r>   -0.1288    0.0000 </r>
       <r>   -0.0061    0.0000 </r>
       <r>    0.2925    0.0000 </r>
       <r>    0.7076    0.0000 </r>
       <r>    0.7269    0.0000 </r>
       <r>    1.0997    0.0000 </r>
       <r>    1.1773    0.0000 </r>
       <r>    1.3651    0.0000 </r>
       <r>    1.4687    0.0000 </r>
       <r>    1.5398    0.0000 </r>
       <r>    1.5694    0.0000 </r>
       <r>    1.6420    0.0000 </r>
       <r>    1.8239    0.0000 </r>
       <r>    1.9189    0.0000 </r>
       <r>    2.0415    0.0000 </r>
       <r>    2.2300    0.0000 </r>
       <r>    2.2713    0.0000 </r>
       <r>    2.3418    0.0000 </r>
       <r>    2.4304    0.0000 </r>
       <r>    2.7533    0.0000 </r>
       <r>    3.2565    0.0000 </r>
       <r>    3.6051    0.0000 </r>
      </set>
      <set comment="kpoint 4">
       <r>  -31.7402    1.0000 </r>
       <r>  -22.0804    1.0000 </r>
       <r>  -22.0076    1.0000 </r>
       <r>  -21.8016    1.0000 </r>
       <r>  -21.1720    1.0000 </r>
       <r>  -21.1505    1.0000 </r>
       <r>  -20.8674    1.0000 </r>
       <r>  -20.4131    1.0000 </r>
       <r>  -20.3389    1.0000 </r>
       <r>  -20.1720    1.0000 </r>
       <r>  -20.1504    1.0000 </r>
       <r>  -20.1430    1.0000 </r>
       <r>  -19.5669    1.0000 </r>
       <r>  -18.8263    1.0000 </r>
       <r>  -18.6746    1.0000 </r>
       <r>  -18.3725    1.0000 </r>
       <r>  -18.3489    1.0000 </r>
       <r>  -18.3364    1.0000 </r>
       <r>  -17.9300    1.0000 </r>
       <r>  -17.8014    1.0000 </r>
       <r>  -17.6016    1.0000 </r>
       <r>  -17.2615    1.0000 </r>
       <r>  -17.1531    1.0000 </r>
       <r>  -17.1207    1.0000 </r>
       <r>  -16.5431    1.0000 </r>
       <r>  -16.4377    1.0000 </r>
       <r>  -16.2843    1.0000 </r>
       <r>  -15.8085    1.0000 </r>
       <r>  -15.6289    1.0000 </r>
       <r>  -15.1755    1.0000 </r>
       <r>  -14.9695    1.0000 </r>
       <r>  -14.6525    1.0000 </r>
       <r>  -13.9601    1.0000 </r>
       <r>  -13.9393    1.0000 </r>
       <r>  -13.9246    1.0000 </r>
       <r>  -13.8736    1.0000 </r>
       <r>  -13.8639    1.0000 </r>
       <r>  -13.7920    1.0000 </r>
       <r>  -13.6747    1.0000 </r>
       <r>  -13.4949    1.0000 </r>
       <r>  -13.0377    1.0000 </r>
       <r>  -12.4746    1.0000 </r>
       <r>  -12.2540    1.0000 </r>
       <r>  -12.0714    1.0000 </r>
       <r>  -11.8234    1.0000 </r>
       <r>  -11.7731    1.0000 </r>
       <r>  -11.5633    1.0000 </r>
       <r>  -11.5456    1.0000 </r>
       <r>  -11.5227    1.0000 </r>
       <r>  -10.9291    1.0000 </r>
       <r>  -10.8178    1.0000 </r>
       <r>  -10.5303    1.0000 </r>
       <r>  -10.2060    1.0000 </r>
       <r>  -10.2038    1.0000 </r>
       <r>  -10.1942    1.0000 </r>
       <r>  -10.0947    1.0000 </r>
       <r>  -10.0526    1.0000 </r>
       <r>  -10.0220    1.0000 </r>
       <r>   -9.9030    1.0000 </r>
       <r>   -9.7517    1.0000 </r>
       <r>   -9.7483    1.0000 </r>
       <r>   -9.5641    1.0000 </r>
       <r>   -9.4411    1.0000 </r>
       <r>   -9.4073    1.0000 </r>
       <r>   -9.1981    1.0000 </r>
       <r>   -9.0486    1.0000 </r>
       <r>   -9.0327    1.0000 </r>
       <r>   -8.8999    1.0000 </r>
       <r>   -8.8855    1.0000 </r>
       <r>   -8.6884    1.0000 </r>
       <r>   -8.6372    1.0000 </r>
       <r>   -8.6353    1.0000 </r>
       <r>   -8.6240    1.0000 </r>
       <r>   -8.5821    1.0000 </r>
       <r>   -8.3744    1.0000 </r>
       <r>   -8.2523    1.0000 </r>
       <r>   -8.1652    1.0000 </r>
       <r>   -8.0356    1.0000 </r>
       <r>   -7.9842    1.0000 </r>
       <r>   -7.8797    1.0000 </r>
       <r>   -7.8580    1.0000 </r>
       <r>   -7.8549    1.0000 </r>
       <r>   -7.2233    1.0000 </r>
       <r>   -7.1842    1.0000 </r>
       <r>   -7.1263    1.0000 </r>
       <r>   -6.8864    1.0000 </r>
       <r>   -6.7215    1.0000 </r>
       <r>   -6.6131    1.0000 </r>
       <r>   -6.4604    1.0000 </r>
       <r>   -6.2675    1.0000 </r>
       <r>   -6.1025    1.0000 </r>
       <r>   -5.9165    1.0000 </r>
       <r>   -5.9111    1.0000 </r>
       <r>   -5.8976    1.0000 </r>
       <r>   -5.4523    1.0000 </r>
       <r>   -5.4253    1.0000 </r>
       <r>   -5.1221    1.0000 </r>
       <r>   -5.0141    1.0000 </r>
       <r>   -4.9804    1.0000 </r>
       <r>   -4.9577    1.0000 </r>
       <r>   -3.7328    1.0000 </r>
       <r>   -3.4584    1.0000 </r>
       <r>   -3.2800    1.0000 </r>
       <r>   -2.3871    0.0000 </r>
       <r>   -2.2241    0.0000 </r>
       <r>   -0.9285    0.0000 </r>
       <r>   -0.8821    0.0000 </r>
       <r>   -0.8678    0.0000 </r>
       <r>   -0.5385    0.0000 </r>
       <r>   -0.2639    0.0000 </r>
       <r>   -0.2111    0.0000 </r>
       <r>    0.2519    0.0000 </r>
       <r>    0.2582    0.0000 </r>
       <r>    0.2605    0.0000 </r>
       <r>    0.5984    0.0000 </r>
       <r>    0.7917    0.0000 </r>
       <r>    0.9506    0.0000 </r>
       <r>    0.9770    0.0000 </r>
       <r>    1.0634    0.0000 </r>
       <r>    1.7377    0.0000 </r>
       <r>    1.7506    0.0000 </r>
       <r>    1.7735    0.0000 </r>
       <r>    1.8289    0.0000 </r>
       <r>    2.1135    0.0000 </r>
       <r>    2.1155    0.0000 </r>
       <r>    2.1179    0.0000 </r>
       <r>    2.2482    0.0000 </r>
       <r>    2.2504    0.0000 </r>
       <r>    2.3636    0.0000 </r>
       <r>    3.0003    0.0000 </r>
       <r>    3.0141    0.0000 </r>
       <r>    3.0363    0.0000 </r>
      </set>
     </set>
    </set>
   </array>
  </eigenvalues>
  <separator name="orbital magnetization" >
   <v name="MAGDIPOLOUT">      0.00000000      0.00000000      0.00000000</v>
  </separator>
  <dos>
   <i name="efermi">     -3.01714168 </i>
   <total>
    <array>
     <dimension dim="1">gridpoints</dimension>
     <dimension dim="2">spin</dimension>
     <field>energy</field>
     <field>total</field>
     <field>integrated</field>
     <set>
      <set comment="spin 1">
       <r>   -33.5075     0.0000     0.0000 </r>
       <r>   -33.3779     0.0000     0.0000 </r>
       <r>   -33.2483     0.0000     0.0000 </r>
       <r>   -33.1187     0.0000     0.0000 </r>
       <r>   -32.9891     0.0000     0.0000 </r>
       <r>   -32.8595     0.0000     0.0000 </r>
       <r>   -32.7299     0.0000     0.0000 </r>
       <r>   -32.6003     0.0000     0.0000 </r>
       <r>   -32.4707     0.0000     0.0000 </r>
       <r>   -32.3411     0.0000     0.0000 </r>
       <r>   -32.2115     0.0000     0.0000 </r>
       <r>   -32.0819     0.0000     0.0000 </r>
       <r>   -31.9523     0.0000     0.0000 </r>
       <r>   -31.8227     0.1512     0.0196 </r>
       <r>   -31.6931    13.8691     1.8170 </r>
       <r>   -31.5635     1.4119     2.0000 </r>
       <r>   -31.4339     0.0000     2.0000 </r>
       <r>   -31.3043     0.0000     2.0000 </r>
       <r>   -31.1747     0.0000     2.0000 </r>
       <r>   -31.0451     0.0000     2.0000 </r>
       <r>   -30.9155     0.0000     2.0000 </r>
       <r>   -30.7859     0.0000     2.0000 </r>
       <r>   -30.6563     0.0000     2.0000 </r>
       <r>   -30.5267     0.0000     2.0000 </r>
       <r>   -30.3971     0.0000     2.0000 </r>
       <r>   -30.2675     0.0000     2.0000 </r>
       <r>   -30.1379     0.0000     2.0000 </r>
       <r>   -30.0083     0.0000     2.0000 </r>
       <r>   -29.8787     0.0000     2.0000 </r>
       <r>   -29.7491     0.0000     2.0000 </r>
       <r>   -29.6195     0.0000     2.0000 </r>
       <r>   -29.4899     0.0000     2.0000 </r>
       <r>   -29.3603     0.0000     2.0000 </r>
       <r>   -29.2307     0.0000     2.0000 </r>
       <r>   -29.1011     0.0000     2.0000 </r>
       <r>   -28.9715     0.0000     2.0000 </r>
       <r>   -28.8419     0.0000     2.0000 </r>
       <r>   -28.7123     0.0000     2.0000 </r>
       <r>   -28.5827     0.0000     2.0000 </r>
       <r>   -28.4531     0.0000     2.0000 </r>
       <r>   -28.3235     0.0000     2.0000 </r>
       <r>   -28.1939     0.0000     2.0000 </r>
       <r>   -28.0643     0.0000     2.0000 </r>
       <r>   -27.9347     0.0000     2.0000 </r>
       <r>   -27.8051     0.0000     2.0000 </r>
       <r>   -27.6755     0.0000     2.0000 </r>
       <r>   -27.5459     0.0000     2.0000 </r>
       <r>   -27.4163     0.0000     2.0000 </r>
       <r>   -27.2867     0.0000     2.0000 </r>
       <r>   -27.1571     0.0000     2.0000 </r>
       <r>   -27.0275     0.0000     2.0000 </r>
       <r>   -26.8979     0.0000     2.0000 </r>
       <r>   -26.7683     0.0000     2.0000 </r>
       <r>   -26.6387     0.0000     2.0000 </r>
       <r>   -26.5091     0.0000     2.0000 </r>
       <r>   -26.3795     0.0000     2.0000 </r>
       <r>   -26.2499     0.0000     2.0000 </r>
       <r>   -26.1203     0.0000     2.0000 </r>
       <r>   -25.9907     0.0000     2.0000 </r>
       <r>   -25.8611     0.0000     2.0000 </r>
       <r>   -25.7315     0.0000     2.0000 </r>
       <r>   -25.6019     0.0000     2.0000 </r>
       <r>   -25.4723     0.0000     2.0000 </r>
       <r>   -25.3427     0.0000     2.0000 </r>
       <r>   -25.2131     0.0000     2.0000 </r>
       <r>   -25.0835     0.0000     2.0000 </r>
       <r>   -24.9539     0.0000     2.0000 </r>
       <r>   -24.8243     0.0000     2.0000 </r>
       <r>   -24.6947     0.0000     2.0000 </r>
       <r>   -24.5651     0.0000     2.0000 </r>
       <r>   -24.4355     0.0000     2.0000 </r>
       <r>   -24.3059     0.0000     2.0000 </r>
       <r>   -24.1763     0.0000     2.0000 </r>
       <r>   -24.0467     0.0000     2.0000 </r>
       <r>   -23.9171     0.0000     2.0000 </r>
       <r>   -23.7875     0.0000     2.0000 </r>
       <r>   -23.6579     0.0000     2.0000 </r>
       <r>   -23.5283     0.0000     2.0000 </r>
       <r>   -23.3987     0.0000     2.0000 </r>
       <r>   -23.2691     0.0000     2.0000 </r>
       <r>   -23.1395     0.0000     2.0000 </r>
       <r>   -23.0099     0.0000     2.0000 </r>
       <r>   -22.8803     0.0000     2.0000 </r>
       <r>   -22.7507     0.0000     2.0000 </r>
       <r>   -22.6211     0.0000     2.0000 </r>
       <r>   -22.4915     0.0000     2.0000 </r>
       <r>   -22.3619     0.0087     2.0011 </r>
       <r>   -22.2323     2.6034     2.3385 </r>
       <r>   -22.1027    10.2333     3.6648 </r>
       <r>   -21.9731     5.4639     4.3729 </r>
       <r>   -21.8435     8.8447     5.5192 </r>
       <r>   -21.7139     6.1032     6.3101 </r>
       <r>   -21.5843     9.4956     7.5407 </r>
       <r>   -21.4547     8.5940     8.6545 </r>
       <r>   -21.3251    10.2503     9.9830 </r>
       <r>   -21.1955     1.3466    10.1575 </r>
       <r>   -21.0659     7.5481    11.1357 </r>
       <r>   -20.9363     9.8904    12.4175 </r>
       <r>   -20.8067    13.8038    14.2064 </r>
       <r>   -20.6771     9.6138    15.4524 </r>
       <r>   -20.5475     0.7979    15.5558 </r>
       <r>   -20.4179     6.9636    16.4583 </r>
       <r>   -20.2883     9.9210    17.7440 </r>
       <r>   -20.1587    10.5447    19.1106 </r>
       <r>   -20.0291    10.2877    20.4439 </r>
       <r>   -19.8995     0.8960    20.5600 </r>
       <r>   -19.7699     9.8092    21.8313 </r>
       <r>   -19.6403    12.8930    23.5022 </r>
       <r>   -19.5107     7.9525    24.5329 </r>
       <r>   -19.3811     1.6557    24.7474 </r>
       <r>   -19.2515    13.7170    26.5252 </r>
       <r>   -19.1219     8.3587    27.6084 </r>
       <r>   -18.9923     9.6402    28.8578 </r>
       <r>   -18.8627     3.7083    29.3384 </r>
       <r>   -18.7331     3.5719    29.8013 </r>
       <r>   -18.6035    11.5549    31.2988 </r>
       <r>   -18.4739    10.4739    32.6562 </r>
       <r>   -18.3443    12.9314    34.3321 </r>
       <r>   -18.2147     4.3372    34.8942 </r>
       <r>   -18.0851    11.4019    36.3719 </r>
       <r>   -17.9555     9.9655    37.6634 </r>
       <r>   -17.8259     5.0579    38.3189 </r>
       <r>   -17.6963     2.7053    38.6695 </r>
       <r>   -17.5667    10.8564    40.0765 </r>
       <r>   -17.4371    12.6843    41.7204 </r>
       <r>   -17.3075     7.0988    42.6404 </r>
       <r>   -17.1779    18.2975    45.0117 </r>
       <r>   -17.0483     6.6000    45.8671 </r>
       <r>   -16.9187     3.0260    46.2593 </r>
       <r>   -16.7891     9.6007    47.5035 </r>
       <r>   -16.6596     5.4184    48.2057 </r>
       <r>   -16.5300     7.6901    49.2024 </r>
       <r>   -16.4004     8.8866    50.3541 </r>
       <r>   -16.2708     2.9626    50.7380 </r>
       <r>   -16.1412     9.8034    52.0085 </r>
       <r>   -16.0116     6.0314    52.7902 </r>
       <r>   -15.8820    12.7846    54.4471 </r>
       <r>   -15.7524    11.7542    55.9704 </r>
       <r>   -15.6228     2.1803    56.2530 </r>
       <r>   -15.4932     4.2095    56.7985 </r>
       <r>   -15.3636     2.7457    57.1544 </r>
       <r>   -15.2340    10.1512    58.4700 </r>
       <r>   -15.1044    21.9343    61.3126 </r>
       <r>   -14.9748     5.1566    61.9809 </r>
       <r>   -14.8452    11.1778    63.4296 </r>
       <r>   -14.7156    11.0997    64.8681 </r>
       <r>   -14.5860     6.5520    65.7172 </r>
       <r>   -14.4564    13.0868    67.4133 </r>
       <r>   -14.3268     7.9553    68.4443 </r>
       <r>   -14.1972     0.4179    68.4984 </r>
       <r>   -14.0676     4.6728    69.1040 </r>
       <r>   -13.9380     7.0595    70.0189 </r>
       <r>   -13.8084    14.7844    71.9350 </r>
       <r>   -13.6788    22.4596    74.8457 </r>
       <r>   -13.5492     2.2615    75.1388 </r>
       <r>   -13.4196     3.1590    75.5482 </r>
       <r>   -13.2900     0.0975    75.5608 </r>
       <r>   -13.1604     8.8723    76.7107 </r>
       <r>   -13.0308    13.6253    78.4765 </r>
       <r>   -12.9012    18.8885    80.9244 </r>
       <r>   -12.7716     6.5835    81.7777 </r>
       <r>   -12.6420     0.6049    81.8561 </r>
       <r>   -12.5124    18.7835    84.2904 </r>
       <r>   -12.3828    10.5846    85.6621 </r>
       <r>   -12.2532     6.0668    86.4484 </r>
       <r>   -12.1236     1.9526    86.7014 </r>
       <r>   -11.9940    12.6754    88.3442 </r>
       <r>   -11.8644     2.9405    88.7253 </r>
       <r>   -11.7348    10.6306    90.1030 </r>
       <r>   -11.6052    20.8476    92.8048 </r>
       <r>   -11.4756    12.7060    94.4515 </r>
       <r>   -11.3460     9.3160    95.6588 </r>
       <r>   -11.2164     9.4060    96.8779 </r>
       <r>   -11.0868     8.7129    98.0070 </r>
       <r>   -10.9572     3.5621    98.4687 </r>
       <r>   -10.8276    21.4713   101.2514 </r>
       <r>   -10.6980     7.4911   102.2222 </r>
       <r>   -10.5684     9.0162   103.3907 </r>
       <r>   -10.4388    15.5989   105.4123 </r>
       <r>   -10.3092     6.4059   106.2425 </r>
       <r>   -10.1796    32.2122   110.4172 </r>
       <r>   -10.0500    22.4981   113.3329 </r>
       <r>    -9.9204    11.6721   114.8456 </r>
       <r>    -9.7908    21.0051   117.5679 </r>
       <r>    -9.6612    16.0181   119.6438 </r>
       <r>    -9.5316    31.9326   123.7823 </r>
       <r>    -9.4020    15.8792   125.8402 </r>
       <r>    -9.2724    30.1047   129.7418 </r>
       <r>    -9.1428    22.1637   132.6142 </r>
       <r>    -9.0132    28.9461   136.3656 </r>
       <r>    -8.8836    21.6201   139.1675 </r>
       <r>    -8.7540    13.0037   140.8528 </r>
       <r>    -8.6244    27.5056   144.4175 </r>
       <r>    -8.4948    15.2695   146.3964 </r>
       <r>    -8.3652    16.4663   148.5304 </r>
       <r>    -8.2356    14.7194   150.4381 </r>
       <r>    -8.1060    18.2481   152.8030 </r>
       <r>    -7.9764    27.6102   156.3812 </r>
       <r>    -7.8468    16.0655   158.4633 </r>
       <r>    -7.7172    15.2360   160.4379 </r>
       <r>    -7.5876     8.5345   161.5440 </r>
       <r>    -7.4580     1.8357   161.7819 </r>
       <r>    -7.3284    17.9029   164.1021 </r>
       <r>    -7.1988    32.4822   168.3118 </r>
       <r>    -7.0692    16.2407   170.4165 </r>
       <r>    -6.9396     3.7494   170.9025 </r>
       <r>    -6.8100    20.1360   173.5121 </r>
       <r>    -6.6804    11.6394   175.0205 </r>
       <r>    -6.5508    16.8289   177.2016 </r>
       <r>    -6.4212     7.5893   178.1851 </r>
       <r>    -6.2916    11.6259   179.6918 </r>
       <r>    -6.1620    15.3430   181.6803 </r>
       <r>    -6.0324    14.8333   183.6027 </r>
       <r>    -5.9028    16.7667   185.7756 </r>
       <r>    -5.7732    10.3110   187.1119 </r>
       <r>    -5.6436    13.3368   188.8404 </r>
       <r>    -5.5140     5.6763   189.5760 </r>
       <r>    -5.3844     6.5966   190.4309 </r>
       <r>    -5.2548    10.1907   191.7516 </r>
       <r>    -5.1252     7.4827   192.7214 </r>
       <r>    -4.9956    14.7967   194.6390 </r>
       <r>    -4.8660    23.6263   197.7010 </r>
       <r>    -4.7364     3.2862   198.1269 </r>
       <r>    -4.6068     0.7356   198.2222 </r>
       <r>    -4.4772     0.0000   198.2222 </r>
       <r>    -4.3476     0.2063   198.2490 </r>
       <r>    -4.2180    14.9370   200.1848 </r>
       <r>    -4.0884    10.4606   201.5405 </r>
       <r>    -3.9588     0.1164   201.5556 </r>
       <r>    -3.8292     0.0110   201.5570 </r>
       <r>    -3.6996     2.8228   201.9228 </r>
       <r>    -3.5700     0.5983   202.0004 </r>
       <r>    -3.4404     2.3947   202.3107 </r>
       <r>    -3.3108     9.5946   203.5542 </r>
       <r>    -3.1812     9.0589   204.7282 </r>
       <r>    -3.0516     9.7311   205.9893 </r>
       <r>    -2.9220     0.8314   206.0971 </r>
       <r>    -2.7924     7.4129   207.0578 </r>
       <r>    -2.6628     3.8404   207.5555 </r>
       <r>    -2.5332     0.0004   207.5556 </r>
       <r>    -2.4036     1.0977   207.6978 </r>
       <r>    -2.2740     2.5999   208.0348 </r>
       <r>    -2.1444     3.1195   208.4391 </r>
       <r>    -2.0148     0.0416   208.4444 </r>
       <r>    -1.8852     0.0000   208.4444 </r>
       <r>    -1.7556     0.0000   208.4444 </r>
       <r>    -1.6260     1.6708   208.6610 </r>
       <r>    -1.4964     9.5117   209.8937 </r>
       <r>    -1.3668    13.9567   211.7025 </r>
       <r>    -1.2372     0.5811   211.7778 </r>
       <r>    -1.1076     0.0017   211.7780 </r>
       <r>    -0.9780     2.5027   212.1023 </r>
       <r>    -0.8484    15.8492   214.1564 </r>
       <r>    -0.7188    20.3751   216.7970 </r>
       <r>    -0.5892    16.4246   218.9256 </r>
       <r>    -0.4596     4.8009   219.5478 </r>
       <r>    -0.3300     0.1669   219.5694 </r>
       <r>    -0.2004     5.5401   220.2874 </r>
       <r>    -0.0708    11.3239   221.7550 </r>
       <r>     0.0588    10.1231   223.0669 </r>
       <r>     0.1884     0.6357   223.1493 </r>
       <r>     0.3180    17.4220   225.4072 </r>
       <r>     0.4476     6.8784   226.2986 </r>
       <r>     0.5772     3.1558   226.7076 </r>
       <r>     0.7068    11.1444   228.1519 </r>
       <r>     0.8364    17.0530   230.3620 </r>
       <r>     0.9660     5.9455   231.1325 </r>
       <r>     1.0956    10.8922   232.5441 </r>
       <r>     1.2252    15.4878   234.5513 </r>
       <r>     1.3548     7.6473   235.5424 </r>
       <r>     1.4844    14.6007   237.4347 </r>
       <r>     1.6140    24.3515   240.5906 </r>
       <r>     1.7436    15.2767   242.5705 </r>
       <r>     1.8732    27.5434   246.1401 </r>
       <r>     2.0028    12.6657   247.7816 </r>
       <r>     2.1324    17.7717   250.0848 </r>
       <r>     2.2620    25.9483   253.4476 </r>
       <r>     2.3916    34.5871   257.9301 </r>
       <r>     2.5212    15.6592   259.9595 </r>
       <r>     2.6508     2.5417   260.2889 </r>
       <r>     2.7804     5.8562   261.0479 </r>
       <r>     2.9100     5.6499   261.7801 </r>
       <r>     3.0396     7.4170   262.7414 </r>
       <r>     3.1692     2.8759   263.1141 </r>
       <r>     3.2988     3.0090   263.5040 </r>
       <r>     3.4284     0.3976   263.5556 </r>
       <r>     3.5580     0.3130   263.5961 </r>
       <r>     3.6876     3.0826   263.9956 </r>
       <r>     3.8172     0.0337   264.0000 </r>
       <r>     3.9468     0.0000   264.0000 </r>
       <r>     4.0764     0.0000   264.0000 </r>
       <r>     4.2060     0.0000   264.0000 </r>
       <r>     4.3356     0.0000   264.0000 </r>
       <r>     4.4652     0.0000   264.0000 </r>
       <r>     4.5948     0.0000   264.0000 </r>
       <r>     4.7244     0.0000   264.0000 </r>
       <r>     4.8540     0.0000   264.0000 </r>
       <r>     4.9836     0.0000   264.0000 </r>
       <r>     5.1132     0.0000   264.0000 </r>
       <r>     5.2428     0.0000   264.0000 </r>
       <r>     5.3724     0.0000   264.0000 </r>
      </set>
     </set>
    </array>
   </total>
  </dos>
 </calculation>
 <structure name="finalpos" >
  <crystal>
   <varray name="basis" >
    <v>      12.30000019       0.00000000       0.00000000 </v>
    <v>       6.15000080      10.65211222       0.00000000 </v>
    <v>       0.00000000       0.00000000      20.00000000 </v>
   </varray>
   <i name="volume">   2620.41964732 </i>
   <varray name="rec_basis" >
    <v>       0.08130081      -0.04693905       0.00000000 </v>
    <v>       0.00000000       0.09387809       0.00000000 </v>
    <v>       0.00000000       0.00000000       0.05000000 </v>
   </varray>
  </crystal>
  <varray name="positions" >
   <v>       0.00000000       0.00000000       0.41799748 </v>
   <v>       0.20000000       0.00000000       0.41799748 </v>
   <v>       0.40000000       0.00000000       0.41799748 </v>
   <v>       0.60000000       0.00000000       0.41749748 </v>
   <v>       0.80000000       0.00000000       0.41799748 </v>
   <v>       0.00000000       0.20000000       0.41799748 </v>
   <v>       0.20000000       0.20000000       0.41799748 </v>
   <v>       0.40000000       0.20000000       0.41799748 </v>
   <v>       0.60000000       0.20000000       0.41799748 </v>
   <v>       0.80000000       0.20000000       0.41799748 </v>
   <v>       0.00000000       0.40000000       0.41799748 </v>
   <v>       0.20000000       0.40000000       0.41799748 </v>
   <v>       0.40000000       0.40000000       0.41799748 </v>
   <v>       0.60000000       0.40000000       0.41799748 </v>
   <v>       0.80000000       0.40000000       0.41799748 </v>
   <v>       0.00000000       0.60000000       0.41799748 </v>
   <v>       0.20000000       0.60000000       0.41799748 </v>
   <v>       0.40000000       0.60000000       0.41799748 </v>
   <v>       0.60000000       0.60000000       0.41799748 </v>
   <v>       0.80000000       0.60000000       0.41799748 </v>
   <v>       0.00000000       0.80000000       0.41799748 </v>
   <v>       0.20000000       0.80000000       0.41799748 </v>
   <v>       0.40000000       0.80000000       0.41799748 </v>
   <v>       0.60000000       0.80000000       0.41799748 </v>
   <v>       0.80000000       0.80000000       0.41799748 </v>
   <v>       0.06666667       0.06666660       0.41800609 </v>
   <v>       0.26666667       0.06666660       0.41800609 </v>
   <v>       0.46666667       0.06666660       0.41800609 </v>
   <v>       0.66666667       0.06666660       0.41800609 </v>
   <v>       0.86666667       0.06666660       0.41800609 </v>
   <v>       0.06666667       0.26666660       0.41800609 </v>
   <v>       0.26666667       0.26666660       0.41800609 </v>
   <v>       0.46666667       0.26666660       0.41800609 </v>
   <v>       0.66666667       0.26666660       0.41800609 </v>
   <v>       0.86666667       0.26666660       0.41800609 </v>
   <v>       0.06666667       0.46666660       0.41800609 </v>
   <v>       0.26666667       0.46666660       0.41800609 </v>
   <v>       0.46666667       0.46666660       0.41800609 </v>
   <v>       0.66666667       0.46666660       0.41800609 </v>
   <v>       0.86666667       0.46666660       0.41800609 </v>
   <v>       0.06666667       0.66666660       0.41800609 </v>
   <v>       0.26666667       0.66666660       0.41800609 </v>
   <v>       0.46666667       0.66666660       0.41800609 </v>
   <v>       0.66666667       0.66666660       0.41800609 </v>
   <v>       0.86666667       0.66666660       0.41800609 </v>
   <v>       0.06666667       0.86666660       0.41800609 </v>
   <v>       0.26666667       0.86666660       0.41800609 </v>
   <v>       0.46666667       0.86666660       0.41800609 </v>
   <v>       0.66666667       0.86666660       0.41800609 </v>
   <v>       0.86666667       0.86666660       0.41800609 </v>
   <v>       0.40000000       0.40000000       0.46800609 </v>
  </varray>
  <varray name="velocities" >
   <v>       0.00000000       0.00000000       0.00000000 </v>
   <v>       0.00000000       0.00000000       0.00000000 </v>
   <v>       0.00000000       0.00000000       0.00000000 </v>
   <v>       0.00000000       0.00000000       0.00000000 </v>
   <v>       0.00000000       0.00000000       0.00000000 </v>
   <v>       0.00000000       0.00000000       0.00000000 </v>
   <v>       0.00000000       0.00000000       0.00000000 </v>
   <v>       0.00000000       0.00000000       0.00000000 </v>
   <v>       0.00000000       0.00000000       0.00000000 </v>
   <v>       0.00000000       0.00000000       0.00000000 </v>
   <v>       0.00000000       0.00000000       0.00000000 </v>
   <v>       0.00000000       0.00000000       0.00000000 </v>
   <v>       0.00000000       0.00000000       0.00000000 </v>
   <v>       0.00000000       0.00000000       0.00000000 </v>
   <v>       0.00000000       0.00000000       0.00000000 </v>
   <v>       0.00000000       0.00000000       0.00000000 </v>
   <v>       0.00000000       0.00000000       0.00000000 </v>
   <v>       0.00000000       0.00000000       0.00000000 </v>
   <v>       0.00000000       0.00000000       0.00000000 </v>
   <v>       0.00000000       0.00000000       0.00000000 </v>
   <v>       0.00000000       0.00000000       0.00000000 </v>
   <v>       0.00000000       0.00000000       0.00000000 </v>
   <v>       0.00000000       0.00000000       0.00000000 </v>
   <v>       0.00000000       0.00000000       0.00000000 </v>
   <v>       0.00000000       0.00000000       0.00000000 </v>
   <v>       0.00000000       0.00000000       0.00000000 </v>
   <v>       0.00000000       0.00000000       0.00000000 </v>
   <v>       0.00000000       0.00000000       0.00000000 </v>
   <v>       0.00000000       0.00000000       0.00000000 </v>
   <v>       0.00000000       0.00000000       0.00000000 </v>
   <v>       0.00000000       0.00000000       0.00000000 </v>
   <v>       0.00000000       0.00000000       0.00000000 </v>
   <v>       0.00000000       0.00000000       0.00000000 </v>
   <v>       0.00000000       0.00000000       0.00000000 </v>
   <v>       0.00000000       0.00000000       0.00000000 </v>
   <v>       0.00000000       0.00000000       0.00000000 </v>
   <v>       0.00000000       0.00000000       0.00000000 </v>
   <v>       0.00000000       0.00000000       0.00000000 </v>
   <v>       0.00000000       0.00000000       0.00000000 </v>
   <v>       0.00000000       0.00000000       0.00000000 </v>
   <v>       0.00000000       0.00000000       0.00000000 </v>
   <v>       0.00000000       0.00000000       0.00000000 </v>
   <v>       0.00000000       0.00000000       0.00000000 </v>
   <v>       0.00000000       0.00000000       0.00000000 </v>
   <v>       0.00000000       0.00000000       0.00000000 </v>
   <v>       0.00000000       0.00000000       0.00000000 </v>
   <v>       0.00000000       0.00000000       0.00000000 </v>
   <v>       0.00000000       0.00000000       0.00000000 </v>
   <v>       0.00000000       0.00000000       0.00000000 </v>
   <v>       0.00000000       0.00000000       0.00000000 </v>
   <v>       0.00000000       0.00000000       0.00000000 </v>
  </varray>
 </structure>
</modeling>
