       N       E                     dE             d eps       ncg     rms          rms(c)
DAV:   1     0.125788577928E+05    0.12579E+05   -0.17463E+05 50324   0.260E+03
DAV:   2     0.225483950104E+04   -0.10324E+05   -0.98828E+04 44800   0.688E+02
DAV:   3    -0.358395853131E+03   -0.26132E+04   -0.24050E+04 51472   0.262E+02
DAV:   4    -0.718819030928E+03   -0.36042E+03   -0.34831E+03 47528   0.109E+02
DAV:   5    -0.735395980815E+03   -0.16577E+02   -0.16527E+02 49280   0.253E+01
RMM:   6    -0.736045778670E+03   -0.64980E+00   -0.64980E+00 59606   0.482E+00
RMM:   7    -0.736097812947E+03   -0.52034E-01   -0.78026E-01 72074   0.123E+00
RMM:   8    -0.736074773836E+03    0.23039E-01   -0.43341E-02 64577   0.554E-01
RMM:   9    -0.736075668148E+03   -0.89431E-03   -0.10881E-02 71156   0.133E-01
RMM:  10    -0.736075547684E+03    0.12046E-03   -0.96799E-04 63188   0.493E-02
RMM:  11    -0.736075556159E+03   -0.84747E-05   -0.25107E-04 59697   0.186E-02
RMM:  12    -0.736075551843E+03    0.43158E-05   -0.26621E-05 47451   0.892E-03
RMM:  13    -0.736075552181E+03   -0.33795E-06   -0.63383E-06 42384   0.512E-03
   1 F= -.73607555E+03 E0= -.73607710E+03  d E =0.464869E-02
