 vasp.5.4.4.18Apr17-6-g9f103f2a35 (build Aug 02 2018 15:13:56) complex          
  
 executed on             LinuxIFC date 2020.05.31  20:35:51
 running on    4 total cores
 distrk:  each k-point on    4 cores,    1 groups
 distr:  one band on NCORES_PER_BAND=   1 cores,    4 groups


--------------------------------------------------------------------------------------------------------


 INCAR:
 POTCAR:    PAW Al                                
 POTCAR:    PAW O                                 
 POTCAR:    PAW Ge                                

 ----------------------------------------------------------------------------- 
|                                                                             |
|  ADVICE TO THIS USER RUNNING 'VASP/VAMP'   (HEAR YOUR MASTER'S VOICE ...):  |
|                                                                             |
|      You have switched on vdW-DFT.                                          |
|      This routine was written and supplied by Jiri Klimes.                  |
|      We recommed that you carefully read and cite the following             |
|      publication                                                            |
|      J. Klimes, D.R. Bowler, A. Michelides                                  |
|        J. Phys.: Cond Matt. 22 022201 (2010)                                |
|      J. Klimes, D.R. Bowler, A. Michelides                                  |
|        Phys. Rev. B. 83, 195131 (2011)                                      |
|      and references therein.                                                |
|                                                                             |
 ----------------------------------------------------------------------------- 

 POTCAR:    PAW Al                                
   VRHFIN =Al: s2p1                                                             
   LEXCH  = CA                                                                  
   EATOM  =    53.7936 eV,    3.9537 Ry                                         
                                                                                
   TITEL  = PAW Al                                                              
   LULTRA =        F    use ultrasoft PP ?                                      
   IUNSCR =        1    unscreen: 0-lin 1-nonlin 2-no                           
   RPACOR =    1.500    partial core radius                                     
   POMASS =   26.982; ZVAL   =    3.000    mass and valenz                      
   RCORE  =    1.900    outmost cutoff radius                                   
   RWIGS  =    2.650; RWIGS  =    1.402    wigner-seitz radius (au A)           
   ENMAX  =  240.957; ENMIN  =  180.718 eV                                      
   ICORE  =        2    local potential                                         
   LCOR   =        T    correct aug charges                                     
   LPAW   =        T    paw PP                                                  
   EAUG   =  291.052                                                            
   DEXC   =    -.032                                                            
   RMAX   =    2.970    core radius for proj-oper                               
   RAUG   =    1.300    factor for augmentation sphere                          
   RDEP   =    1.966    core radius for depl-charge                             
   QCUT   =   -4.208; QGAM   =    8.417    optimization parameters              
                                                                                
   Description                                                                  
     l     E      TYP  RCUT    TYP  RCUT                                        
     0   .000     23  1.900                                                     
     0   .000     23  1.900                                                     
     1   .000     23  1.900                                                     
     1  1.000     23  1.900                                                     
     2   .000      7  1.900                                                     
  local pseudopotential read in
  partial core-charges read in
  atomic valenz-charges read in
  non local Contribution for L=           0  read in
    real space projection operators read in
  non local Contribution for L=           0  read in
    real space projection operators read in
  non local Contribution for L=           1  read in
    real space projection operators read in
  non local Contribution for L=           1  read in
    real space projection operators read in
    PAW grid and wavefunctions read in
 
   number of l-projection  operators is LMAX  =           4
   number of lm-projection operators is LMMAX =           8
 
 POTCAR:    PAW O                                 
   VRHFIN =O: s2p4                                                              
   LEXCH  = CA                                                                  
   EATOM  =   431.4447 eV,   31.7103 Ry                                         
                                                                                
   TITEL  = PAW O                                                               
   LULTRA =        F    use ultrasoft PP ?                                      
   IUNSCR =        0    unscreen: 0-lin 1-nonlin 2-no                           
   RPACOR =     .000    partial core radius                                     
   POMASS =   16.000; ZVAL   =    6.000    mass and valenz                      
   RCORE  =    1.520    outmost cutoff radius                                   
   RWIGS  =    1.550; RWIGS  =     .820    wigner-seitz radius (au A)           
   ENMAX  =  400.000; ENMIN  =  300.000 eV                                      
   ICORE  =        2    local potential                                         
   LCOR   =        T    correct aug charges                                     
   LPAW   =        T    paw PP                                                  
   EAUG   =  605.392                                                            
   DEXC   =     .000                                                            
   RMAX   =    2.265    core radius for proj-oper                               
   RAUG   =    1.300    factor for augmentation sphere                          
   RDEP   =    1.550    radius for radial grids                                 
   QCUT   =   -5.518; QGAM   =   11.037    optimization parameters              
                                                                                
   Description                                                                  
     l     E      TYP  RCUT    TYP  RCUT                                        
     0   .000     23  1.200                                                     
     0  -.700     23  1.200                                                     
     1   .000     23  1.520                                                     
     1   .600     23  1.520                                                     
     2   .000      7  1.500                                                     
  local pseudopotential read in
  atomic valenz-charges read in
  non local Contribution for L=           0  read in
    real space projection operators read in
  non local Contribution for L=           0  read in
    real space projection operators read in
  non local Contribution for L=           1  read in
    real space projection operators read in
  non local Contribution for L=           1  read in
    real space projection operators read in
    PAW grid and wavefunctions read in
 
   number of l-projection  operators is LMAX  =           4
   number of lm-projection operators is LMMAX =           8
 
 POTCAR:    PAW Ge                                
   VRHFIN =Ge: 3d4s4p                                                           
   LEXCH  = CA                                                                  
   EATOM  =  2602.3767 eV,  191.2693 Ry                                         
                                                                                
   TITEL  = PAW Ge                                                              
   LULTRA =        F    use ultrasoft PP ?                                      
   IUNSCR =        1    unscreen: 0-lin 1-nonlin 2-no                           
   RPACOR =    2.000    partial core radius                                     
   POMASS =   72.610; ZVAL   =   14.000    mass and valenz                      
   RCORE  =    2.300    outmost cutoff radius                                   
   RWIGS  =    2.300; RWIGS  =    1.217    wigner-seitz radius (au A)           
   ENMAX  =  287.700; ENMIN  =  215.775 eV                                      
   ICORE  =        3    local potential                                         
   LCOR   =        T    correct aug charges                                     
   LPAW   =        T    paw PP                                                  
   EAUG   =  531.356                                                            
   DEXC   =     .000                                                            
   RMAX   =    2.718    core radius for proj-oper                               
   RAUG   =    1.300    factor for augmentation sphere                          
   RDEP   =    2.318    core radius for depl-charge                             
   QCUT   =   -4.598; QGAM   =    9.197    optimization parameters              
                                                                                
   Description                                                                  
     l     E      TYP  RCUT    TYP  RCUT                                        
     2   .000     23  2.300                                                     
     2  -.100     23  2.300                                                     
     0   .000     23  2.300                                                     
     0   .000     23  2.300                                                     
     1   .000     23  2.300                                                     
     1   .000     23  2.300                                                     
     3  -.100      7  2.300                                                     
  local pseudopotential read in
  partial core-charges read in
  atomic valenz-charges read in
  non local Contribution for L=           2  read in
    real space projection operators read in
  non local Contribution for L=           2  read in
    real space projection operators read in
  non local Contribution for L=           0  read in
    real space projection operators read in
  non local Contribution for L=           0  read in
    real space projection operators read in
  non local Contribution for L=           1  read in
    real space projection operators read in
  non local Contribution for L=           1  read in
    real space projection operators read in
    PAW grid and wavefunctions read in
 
   number of l-projection  operators is LMAX  =           6
   number of lm-projection operators is LMMAX =          18
 
 Optimization of the real space projectors (new method)

 maximal supplied QI-value         = 19.84
 optimisation between [QCUT,QGAM] = [ 10.12, 20.44] = [ 28.68,116.96] Ry 
 Optimized for a Real-space Cutoff    1.38 Angstroem

   l    n(q)    QCUT    max X(q) W(low)/X(q) W(high)/X(q)  e(spline) 
   0      8    10.119    12.940    0.17E-04    0.89E-05    0.63E-08
   0      8    10.119   138.101    0.42E-04    0.10E-03    0.51E-07
   1      8    10.119     9.250    0.25E-04    0.53E-05    0.19E-07
   1      8    10.119    50.313    0.20E-03    0.15E-03    0.18E-06
 Optimization of the real space projectors (new method)

 maximal supplied QI-value         = 24.76
 optimisation between [QCUT,QGAM] = [ 10.15, 20.30] = [ 28.85,115.39] Ry 
 Optimized for a Real-space Cutoff    1.51 Angstroem

   l    n(q)    QCUT    max X(q) W(low)/X(q) W(high)/X(q)  e(spline) 
   0      9    10.150     4.112    0.30E-04    0.13E-04    0.12E-06
   0      9    10.150     8.789    0.18E-03    0.20E-03    0.43E-06
   1      9    10.150     2.496    0.31E-04    0.31E-04    0.58E-07
   1      9    10.150     3.859    0.13E-03    0.16E-03    0.34E-06
 Optimization of the real space projectors (new method)

 maximal supplied QI-value         = 16.25
 optimisation between [QCUT,QGAM] = [ 10.24, 20.48] = [ 29.35,117.42] Ry 
 Optimized for a Real-space Cutoff    1.42 Angstroem

   l    n(q)    QCUT    max X(q) W(low)/X(q) W(high)/X(q)  e(spline) 
   2      8    10.239     7.544    0.74E-05    0.57E-04    0.35E-07
   2      8    10.239    11.962    0.38E-04    0.17E-03    0.13E-06
   0      9    10.239     8.430    0.22E-04    0.90E-05    0.15E-07
   0      9    10.239    33.187    0.47E-04    0.90E-04    0.65E-07
   1      8    10.239     5.816    0.26E-04    0.62E-05    0.45E-07
   1      8    10.239    27.463    0.20E-03    0.20E-03    0.73E-07

 ----------------------------------------------------------------------------- 
|                                                                             |
|  ADVICE TO THIS USER RUNNING 'VASP/VAMP'   (HEAR YOUR MASTER'S VOICE ...):  |
|                                                                             |
|      You enforced a specific xc-type in the INCAR file,                     |
|      a different type was found on the POTCAR file                          |
|          I HOPE YOU KNOW, WHAT YOU ARE  DOING                               |
|                                                                             |
 ----------------------------------------------------------------------------- 

  PAW Al                                :
 energy of atom  1       EATOM=  -53.7936
 kinetic energy error for atom=    0.0006 (will be added to EATOM!!)
  PAW O                                 :
 energy of atom  2       EATOM= -431.4447
 kinetic energy error for atom=    0.1130 (will be added to EATOM!!)
  PAW Ge                                :
 energy of atom  3       EATOM=-2602.3767
 kinetic energy error for atom=    0.0088 (will be added to EATOM!!)
 
 
 POSCAR: Ge_2+Al2O3_rt3                          
  positions in direct lattice
  velocities in cartesian coordinates
 exchange correlation table for  LEXCH =       41
   RHO(1)=    0.500       N(1)  =     2000
   RHO(2)=  100.500       N(2)  =     4000

 VTST: version 3.1, (03/28/14)

 CHAIN: initializing optimizer
 
 OPT: Using VASP Dynamics algorithm
 CHAIN: Read ICHAIN            0
 
 POSCAR: Ge_2+Al2O3_rt3                          
  positions in direct lattice
  velocities in cartesian coordinates
 


--------------------------------------------------------------------------------------------------------


 ion  position               nearest neighbor table
   1  0.004  0.334  0.353-  40 1.70  45 1.71  38 1.72 101 2.87   6 3.00   4 3.01   5 3.05   7 3.12
                             8 3.15   9 3.16
   2  0.666  0.670  0.353-  39 1.70  41 1.71  43 1.72 102 2.87   6 3.00   4 3.01   5 3.05   9 3.12
                             7 3.15   8 3.16
   3  0.330  0.996  0.353-  44 1.70  37 1.71  42 1.72 100 2.87   6 3.00   4 3.01   5 3.05   8 3.12
                             9 3.15   7 3.16
   4  0.000  0.000  0.386-  37 1.82  45 1.82  41 1.82  54 1.94  49 1.94  48 1.94  13 2.59   7 2.74
                             9 2.74   8 2.74   3 3.01   1 3.01   2 3.01
   5  0.667  0.333  0.386-  38 1.82  43 1.82  42 1.82  52 1.94  50 1.94  46 1.94  14 2.59   8 2.74
                             7 2.74   9 2.74   2 3.05   1 3.05   3 3.05
   6  0.333  0.667  0.386-  40 1.81  39 1.81  44 1.81  47 1.94  53 1.94  51 1.94  15 2.59   7 2.74
                             9 2.74   8 2.74   1 3.00   3 3.00   2 3.00
   7  0.333  0.333  0.392-  40 1.89  47 1.92  49 1.92  52 1.92  43 1.92  37 1.93   6 2.74   4 2.74
                             5 2.74   1 3.12   2 3.15   3 3.16  10 3.32  11 3.32  12 3.32
   8  0.000  0.667  0.392-  44 1.89  50 1.92  53 1.92  48 1.92  38 1.92  41 1.93   5 2.74   6 2.74
                             4 2.74   3 3.12   1 3.15   2 3.16  11 3.32  10 3.32  12 3.32
   9  0.667  0.000  0.392-  39 1.89  46 1.92  51 1.92  54 1.92  42 1.92  45 1.93   6 2.74   4 2.74
                             5 2.74   2 3.12   3 3.15   1 3.16  12 3.32  10 3.32  11 3.32
  10  0.000  0.333  0.440-  46 1.85  49 1.85  53 1.85  58 1.94  61 1.94  55 1.94  19 2.62  15 2.77
                            14 2.77  13 2.77   7 3.32   8 3.32   9 3.32
  11  0.667  0.667  0.440-  50 1.85  54 1.85  47 1.85  56 1.94  62 1.94  59 1.94  20 2.62  14 2.77
                            13 2.77  15 2.77   8 3.32   7 3.32   9 3.32
  12  0.333  0.000  0.440-  52 1.85  48 1.85  51 1.85  57 1.94  63 1.94  60 1.94  21 2.62  14 2.77
                            13 2.77  15 2.77   9 3.32   8 3.32   7 3.32
  13  0.000  0.000  0.451-  60 1.85  55 1.85  62 1.85  54 1.98  48 1.98  49 1.98   4 2.59  11 2.77
                            12 2.77  10 2.77  16 3.20  18 3.20  17 3.20
  14  0.667  0.333  0.451-  56 1.85  63 1.85  58 1.85  52 1.98  50 1.98  46 1.98   5 2.59  11 2.77
                            12 2.77  10 2.77  17 3.20  16 3.20  18 3.20
  15  0.333  0.667  0.451-  59 1.85  61 1.85  57 1.85  47 1.98  53 1.98  51 1.98   6 2.59  10 2.77
                            11 2.77  12 2.77  16 3.20  18 3.20  17 3.20
  16  0.333  0.333  0.494-  61 1.84  56 1.84  60 1.84  64 1.97  70 1.97  67 1.97  25 2.62  19 2.78
                            20 2.78  21 2.78  15 3.20  13 3.20  14 3.20
  17  0.000  0.667  0.494-  58 1.84  57 1.84  62 1.84  65 1.97  68 1.97  71 1.97  26 2.62  20 2.78
                            19 2.78  21 2.78  14 3.20  15 3.20  13 3.20
  18  0.667  0.000  0.494-  59 1.84  63 1.84  55 1.84  66 1.97  69 1.97  72 1.97  27 2.62  21 2.78
                            19 2.78  20 2.78  15 3.20  13 3.20  14 3.20
  19  0.000  0.333  0.506-  72 1.84  68 1.84  64 1.84  58 1.97  61 1.97  55 1.97  10 2.62  16 2.78
                            17 2.78  18 2.78  24 3.20  23 3.20  22 3.20
  20  0.667  0.667  0.506-  65 1.84  70 1.84  69 1.84  56 1.97  62 1.97  59 1.97  11 2.62  17 2.78
                            16 2.78  18 2.78  23 3.20  22 3.20  24 3.20
  21  0.333  0.000  0.506-  66 1.84  67 1.84  71 1.84  63 1.97  57 1.97  60 1.97  12 2.62  18 2.78
                            17 2.78  16 2.78  23 3.20  22 3.20  24 3.20
  22  0.000  0.000  0.549-  71 1.85  64 1.85  69 1.85  76 1.98  73 1.98  80 1.98  31 2.59  25 2.77
                            27 2.77  26 2.77  20 3.20  21 3.20  19 3.20
  23  0.667  0.333  0.549-  67 1.85  65 1.85  72 1.85  74 1.98  77 1.98  81 1.98  32 2.59  26 2.77
                            25 2.77  27 2.77  20 3.20  21 3.20  19 3.20
  24  0.333  0.667  0.549-  70 1.85  66 1.85  68 1.85  78 1.98  79 1.98  75 1.98  33 2.59  25 2.77
                            27 2.77  26 2.77  19 3.20  20 3.20  21 3.20
  25  0.333  0.333  0.560-  79 1.85  76 1.85  74 1.85  70 1.94  64 1.94  67 1.94  16 2.62  24 2.77
                            22 2.77  23 2.77  28 3.32  29 3.32  30 3.32
  26  0.000  0.667  0.560-  75 1.85  77 1.85  80 1.85  65 1.94  68 1.94  71 1.94  17 2.62  23 2.77
                            24 2.77  22 2.77  29 3.32  28 3.32  30 3.32
  27  0.667  0.000  0.560-  78 1.85  73 1.85  81 1.85  66 1.94  69 1.94  72 1.94  18 2.62  24 2.77
                            22 2.77  23 2.77  30 3.32  28 3.32  29 3.32
  28  0.000  0.333  0.608-  82 1.89  79 1.92  77 1.92  73 1.92  88 1.92  85 1.93  33 2.74  32 2.74
                            31 2.74  36 3.12  35 3.15  34 3.16  25 3.32  26 3.32  27 3.32
  29  0.667  0.667  0.608-  86 1.89  74 1.92  80 1.92  78 1.92  83 1.92  89 1.93  32 2.74  31 2.74
                            33 2.74  35 3.12  34 3.15  36 3.16  26 3.32  25 3.32  27 3.32
  30  0.333  0.000  0.608-  90 1.89  75 1.92  81 1.92  76 1.92  87 1.92  84 1.93  32 2.74  31 2.74
                            33 2.74  34 3.12  36 3.15  35 3.16  27 3.32  26 3.32  25 3.32
  31  0.000  0.000  0.614-  85 1.82  84 1.82  89 1.82  76 1.94  80 1.94  73 1.94  22 2.59  29 2.74
                            30 2.74  28 2.74  35 3.01  34 3.01  36 3.01
  32  0.667  0.333  0.614-  82 1.81  90 1.81  86 1.81  74 1.94  77 1.94  81 1.94  23 2.59  29 2.74
                            30 2.74  28 2.74  36 3.00  34 3.00  35 3.00
  33  0.333  0.667  0.614-  87 1.82  88 1.82  83 1.82  78 1.94  79 1.94  75 1.94  24 2.59  28 2.74
                            29 2.74  30 2.74  36 3.05  34 3.05  35 3.05
  34  0.334  0.330  0.647-  90 1.70  85 1.71  83 1.72  94 2.87  32 3.00  31 3.01  33 3.05  30 3.12
                            29 3.15  28 3.16
  35  0.996  0.666  0.647-  86 1.70  84 1.71  88 1.72  93 2.87  32 3.00  31 3.01  33 3.05  29 3.12
                            28 3.15  30 3.16
  36  0.670  0.004  0.647-  82 1.70  89 1.71  87 1.72  92 2.87  32 3.00  31 3.01  33 3.05  28 3.12
                            30 3.15  29 3.16
  37  0.220  0.122  0.362-   3 1.71   4 1.82   7 1.93
  38  0.888  0.454  0.362-   1 1.72   5 1.82   8 1.92
  39  0.553  0.791  0.362-   2 1.70   6 1.81   9 1.89
  40  0.238  0.447  0.362-   1 1.70   6 1.81   7 1.89
  41  0.902  0.780  0.362-   2 1.71   4 1.82   8 1.93
  42  0.567  0.112  0.362-   3 1.72   5 1.82   9 1.92
  43  0.546  0.433  0.362-   2 1.72   5 1.82   7 1.92
  44  0.209  0.762  0.362-   3 1.70   6 1.81   8 1.89
  45  0.878  0.098  0.362-   1 1.71   4 1.82   9 1.93
  46  0.770  0.230  0.418-  10 1.85   9 1.92   5 1.94  14 1.98
  47  0.437  0.563  0.418-  11 1.85   7 1.92   6 1.94  15 1.98
  48  0.104  0.896  0.418-  12 1.85   8 1.92   4 1.94  13 1.98
  49  0.104  0.207  0.418-  10 1.85   7 1.92   4 1.94  13 1.98
  50  0.770  0.541  0.418-  11 1.85   8 1.92   5 1.94  14 1.98
  51  0.437  0.874  0.418-  12 1.85   9 1.92   6 1.94  15 1.98
  52  0.459  0.230  0.418-  12 1.85   7 1.92   5 1.94  14 1.98
  53  0.126  0.563  0.418-  10 1.85   8 1.92   6 1.94  15 1.98
  54  0.793  0.896  0.418-  11 1.85   9 1.92   4 1.94  13 1.98
  55  0.899  0.129  0.473-  18 1.84  13 1.85  10 1.94  19 1.97
  56  0.565  0.463  0.473-  16 1.84  14 1.85  11 1.94  20 1.97
  57  0.232  0.796  0.473-  17 1.84  15 1.85  12 1.94  21 1.97
  58  0.897  0.435  0.473-  17 1.84  14 1.85  10 1.94  19 1.97
  59  0.564  0.768  0.473-  18 1.84  15 1.85  11 1.94  20 1.97
  60  0.231  0.101  0.473-  16 1.84  13 1.85  12 1.94  21 1.97
  61  0.204  0.436  0.473-  16 1.84  15 1.85  10 1.94  19 1.97
  62  0.871  0.769  0.473-  17 1.84  13 1.85  11 1.94  20 1.97
  63  0.537  0.103  0.473-  18 1.84  14 1.85  12 1.94  21 1.97
  64  0.129  0.231  0.527-  19 1.84  22 1.85  25 1.94  16 1.97
  65  0.796  0.564  0.527-  20 1.84  23 1.85  26 1.94  17 1.97
  66  0.463  0.897  0.527-  21 1.84  24 1.85  27 1.94  18 1.97
  67  0.436  0.232  0.527-  21 1.84  23 1.85  25 1.94  16 1.97
  68  0.103  0.565  0.527-  19 1.84  24 1.85  26 1.94  17 1.97
  69  0.769  0.899  0.527-  20 1.84  22 1.85  27 1.94  18 1.97
  70  0.435  0.537  0.527-  20 1.84  24 1.85  25 1.94  16 1.97
  71  0.101  0.871  0.527-  21 1.84  22 1.85  26 1.94  17 1.97
  72  0.768  0.204  0.527-  19 1.84  23 1.85  27 1.94  18 1.97
  73  0.896  0.104  0.582-  27 1.85  28 1.92  31 1.94  22 1.98
  74  0.563  0.437  0.582-  25 1.85  29 1.92  32 1.94  23 1.98
  75  0.230  0.770  0.582-  26 1.85  30 1.92  33 1.94  24 1.98
  76  0.207  0.104  0.582-  25 1.85  30 1.92  31 1.94  22 1.98
  77  0.874  0.437  0.582-  26 1.85  28 1.92  32 1.94  23 1.98
  78  0.541  0.770  0.582-  27 1.85  29 1.92  33 1.94  24 1.98
  79  0.230  0.459  0.582-  25 1.85  28 1.92  33 1.94  24 1.98
  80  0.896  0.793  0.582-  26 1.85  29 1.92  31 1.94  22 1.98
  81  0.563  0.126  0.582-  27 1.85  30 1.92  32 1.94  23 1.98
  82  0.791  0.238  0.638-  36 1.70  32 1.81  28 1.89
  83  0.454  0.567  0.638-  34 1.72  33 1.82  29 1.92
  84  0.122  0.902  0.638-  35 1.71  31 1.82  30 1.93
  85  0.098  0.220  0.638-  34 1.71  31 1.82  28 1.93
  86  0.762  0.553  0.638-  35 1.70  32 1.81  29 1.89
  87  0.433  0.888  0.638-  36 1.72  33 1.82  30 1.92
  88  0.112  0.546  0.638-  35 1.72  33 1.82  28 1.92
  89  0.780  0.878  0.638-  36 1.71  31 1.82  29 1.93
  90  0.447  0.209  0.638-  34 1.70  32 1.81  30 1.89
  91  0.000  0.000  0.707-  98 2.49  95 2.49  96 2.49
  92  0.477  0.986  0.709-  97 2.49  96 2.50  95 2.50  36 2.87
  93  0.014  0.491  0.709-  97 2.49  98 2.50  96 2.50  35 2.87
  94  0.509  0.523  0.709-  97 2.49  95 2.50  98 2.50  34 2.87
  95  0.335  0.183  0.725-  91 2.49  94 2.50  92 2.50
  96  0.817  0.152  0.725-  91 2.49  92 2.50  93 2.50
  97  0.333  0.667  0.735-  92 2.49  94 2.49  93 2.49
  98  0.848  0.665  0.725-  91 2.49  93 2.50  94 2.50
  99  0.000  0.000  0.293- 104 2.49 103 2.49 106 2.49
 100  0.523  0.014  0.291- 105 2.49 104 2.50 103 2.50   3 2.87
 101  0.986  0.509  0.291- 105 2.49 106 2.50 104 2.50   1 2.87
 102  0.491  0.477  0.291- 105 2.49 103 2.50 106 2.50   2 2.87
 103  0.665  0.817  0.275-  99 2.49 102 2.50 100 2.50
 104  0.183  0.848  0.275-  99 2.49 100 2.50 101 2.50
 105  0.667  0.333  0.265- 100 2.49 101 2.49 102 2.49
 106  0.152  0.335  0.275-  99 2.49 101 2.50 102 2.50
 
  LATTYP: Found a hexagonal cell.
 ALAT       =     8.1961058128
 C/A-ratio  =     4.8093695586
  
  Lattice vectors:
  
 A1 = (   7.0980358460,  -4.0980529064,   0.0000000000)
 A2 = (   0.0000000000,   8.1961058128,   0.0000000000)
 A3 = (   0.0000000000,   0.0000000000,  39.4181017950)


Analysis of symmetry for initial positions (statically):
=====================================================================
 Subroutine PRICEL returns:
 Original cell was already a primitive cell.
 

 Routine SETGRP: Setting up the symmetry group for a 
 hexagonal supercell.


 Subroutine GETGRP returns: Found  6 space group operations
 (whereof  6 operations were pure point group operations)
 out of a pool of 24 trial point group operations.


The static configuration has the point symmetry S_6 .


Analysis of symmetry for dynamics (positions and initial velocities):
=====================================================================
 Subroutine PRICEL returns:
 Original cell was already a primitive cell.
 

 Routine SETGRP: Setting up the symmetry group for a 
 hexagonal supercell.


 Subroutine GETGRP returns: Found  6 space group operations
 (whereof  6 operations were pure point group operations)
 out of a pool of 24 trial point group operations.


The dynamic configuration has the point symmetry S_6 .


Analysis of constrained symmetry for selective dynamics:
=====================================================================
 Subroutine PRICEL returns:
 Original cell was already a primitive cell.
 

 Routine SETGRP: Setting up the symmetry group for a 
 hexagonal supercell.


 Subroutine GETGRP returns: Found  6 space group operations
 (whereof  6 operations were pure point group operations)
 out of a pool of 24 trial point group operations.


The constrained configuration has the point symmetry S_6 .


 Subroutine INISYM returns: Found  6 space group operations
 (whereof  6 operations are pure point group operations),
 and found     1 'primitive' translations

 
 
 KPOINTS: KPOINT_file_2                           
  k-points in reciprocal lattice
Space group operators:
 irot       det(A)        alpha          n_x          n_y          n_z        tau_x        tau_y        tau_z
    1     1.000000     0.000000     1.000000     0.000000     0.000000     0.000000     0.000000     0.000000
    2    -1.000000     0.000000     1.000000     0.000000     0.000000     0.000000     0.000000     0.000000
    3     1.000000   120.000000     0.000000     0.000000    -1.000000     0.000000     0.000000     0.000000
    4    -1.000000   120.000000     0.000000     0.000000    -1.000000     0.000000     0.000000     0.000000
    5     1.000000   120.000000     0.000000     0.000000     1.000000     0.000000     0.000000     0.000000
    6    -1.000000   120.000000     0.000000     0.000000     1.000000     0.000000     0.000000     0.000000


--------------------------------------------------------------------------------------------------------




 Dimension of arrays:
   k-points           NKPTS =     51   k-points in BZ     NKDIM =     51   number of bands    NBANDS=    396
   number of dos      NEDOS =    301   number of ions     NIONS =    106
   non local maximal  LDIM  =      6   non local SUM 2l+1 LMDIM =     18
   total plane-waves  NPLWV = 787320
   max r-space proj   IRMAX =   4987   max aug-charges    IRDMAX=  13560
   dimension x,y,z NGX =    54 NGY =   54 NGZ =  270
   dimension x,y,z NGXF=   108 NGYF=  108 NGZF=  540
   support grid    NGXF=   108 NGYF=  108 NGZF=  540
   ions per type =              36  54  16
   NGX,Y,Z   is equivalent  to a cutoff of  10.95, 10.95, 11.39 a.u.
   NGXF,Y,Z  is equivalent  to a cutoff of  21.91, 21.91, 22.77 a.u.

 SYSTEM =  vasp                                    
 POSCAR =  Ge_2+Al2O3_rt3                          

 Startparameter for this run:
   NWRITE =      2    write-flag & timer
   PREC   = accura    normal or accurate (medium, high low for compatibility)
   ISTART =      0    job   : 0-new  1-cont  2-samecut
   ICHARG =     11    charge: 1-file 2-atom 10-const
   ISPIN  =      1    spin polarized calculation?
   LNONCOLLINEAR =      F non collinear calculations
   LSORBIT =      F    spin-orbit coupling
   INIWAV =      1    electr: 0-lowe 1-rand  2-diag
   LASPH  =      F    aspherical Exc in radial PAW
   METAGGA=      F    non-selfconsistent MetaGGA calc.

 Electronic Relaxation 1
   ENCUT  =  400.0 eV  29.40 Ry    5.42 a.u.  13.37 13.37 64.28*2*pi/ulx,y,z
   ENINI  =  400.0     initial cutoff
   ENAUG  =  605.4 eV  augmentation charge cutoff
   NELM   =    200;   NELMIN=  2; NELMDL= -5     # of ELM steps 
   EDIFF  = 0.1E-05   stopping-criterion for ELM
   LREAL  =      T    real-space projection
   NLSPLINE    = F    spline interpolate recip. space projectors
   LCOMPAT=      F    compatible to vasp.4.4
   GGA_COMPAT  = T    GGA compatible to vasp.4.4-vasp.4.6
   LMAXPAW     = -100 max onsite density
   LMAXMIX     =    2 max onsite mixed and CHGCAR
   VOSKOWN=      0    Vosko Wilk Nusair interpolation
   ROPT   =   -0.00025  -0.00025  -0.00025
 Ionic relaxation
   EDIFFG = 0.1E-04   stopping-criterion for IOM
   NSW    =      0    number of steps for IOM
   NBLOCK =      1;   KBLOCK =      1    inner block; outer block 
   IBRION =     -1    ionic relax: 0-MD 1-quasi-New 2-CG
   NFREE  =      0    steps in history (QN), initial steepest desc. (CG)
   ISIF   =      2    stress and relaxation
   IWAVPR =     10    prediction:  0-non 1-charg 2-wave 3-comb
   ISYM   =      2    0-nonsym 1-usesym 2-fastsym
   LCORR  =      T    Harris-Foulkes like correction to forces

   POTIM  = 0.5000    time-step for ionic-motion
   TEIN   =    0.0    initial temperature
   TEBEG  =    0.0;   TEEND  =   0.0 temperature during run
   SMASS  =  -3.00    Nose mass-parameter (am)
   estimated Nose-frequenzy (Omega)   =  0.10E-29 period in steps =****** mass=  -0.154E-26a.u.
   SCALEE = 1.0000    scale energy and forces
   NPACO  =    256;   APACO  = 16.0  distance and # of slots for P.C.
   PSTRESS=    0.0 pullay stress

  Mass of Ions in am
   POMASS =  26.98 16.00 72.61
  Ionic Valenz
   ZVAL   =   3.00  6.00 14.00
  Atomic Wigner-Seitz radii
   RWIGS  =  -1.00 -1.00 -1.00
  virtual crystal weights 
   VCA    =   1.00  1.00  1.00
   NELECT =     656.0000    total number of electrons
   NUPDOWN=      -1.0000    fix difference up-down

 DOS related values:
   EMIN   =  10.00;   EMAX   =-10.00  energy-range for DOS
   EFERMI =   0.00
   ISMEAR =     1;   SIGMA  =   0.10  broadening in eV -4-tet -1-fermi 0-gaus

 Electronic relaxation 2 (details)
   IALGO  =     68    algorithm
   LDIAG  =      T    sub-space diagonalisation (order eigenvalues)
   LSUBROT=      F    optimize rotation matrix (better conditioning)
   TURBO    =      0    0=normal 1=particle mesh
   IRESTART =      0    0=no restart 2=restart with 2 vectors
   NREBOOT  =      0    no. of reboots
   NMIN     =      0    reboot dimension
   EREF     =   0.00    reference energy to select bands
   IMIX   =      4    mixing-type and parameters
     AMIX     =   0.40;   BMIX     =  1.00
     AMIX_MAG =   1.60;   BMIX_MAG =  1.00
     AMIN     =   0.10
     WC   =   100.;   INIMIX=   1;  MIXPRE=   1;  MAXMIX= -45

 Intra band minimization:
   WEIMIN = 0.0000     energy-eigenvalue tresh-hold
   EBREAK =  0.63E-09  absolut break condition
   DEPER  =   0.30     relativ break condition  

   TIME   =   0.40     timestep for ELM

  volume/ion in A,a.u.               =      21.63       145.99
  Fermi-wavevector in a.u.,A,eV,Ry     =   1.078687  2.038424 15.831285  1.163567
  Thomas-Fermi vector in A             =   2.214633
 
 Write flags
   LWAVE        =      T    write WAVECAR
   LDOWNSAMPLE  =      F    k-point downsampling of WAVECAR
   LCHARG       =      F    write CHGCAR
   LVTOT        =      F    write LOCPOT, total local potential
   LVHAR        =      F    write LOCPOT, Hartree potential only
   LELF         =      F    write electronic localiz. function (ELF)
   LORBIT       =      0    0 simple, 1 ext, 2 COOP (PROOUT), +10 PAW based schemes


 Dipole corrections
   LMONO  =      F    monopole corrections only (constant potential shift)
   LDIPOL =      F    correct potential (dipole corrections)
   IDIPOL =      0    1-x, 2-y, 3-z, 4-all directions 
   EPSILON=  1.0000000 bulk dielectric constant

 Exchange correlation treatment:
   GGA     =    OR    GGA type
   LEXCH   =    41    internal setting for exchange type
   VOSKOWN=      0    Vosko Wilk Nusair interpolation
   LHFCALC =     F    Hartree Fock is set to
   LHFONE  =     F    Hartree Fock one center treatment
   AEXX    =    0.0000 exact exchange contribution

 vdW DFT:
   LUSE_VDW   =     T    switch on vdW DFT
   Zab_VDW    =-.8491    correlation parameter
   PARAM1     =0.1234
   PARAM2     =1.0000
   PARAM3     =0.0000
   -- rVV10 --
   BPARAM     = 6.3000
   CPARAM     = 0.0093

 Linear response parameters
   LEPSILON=     F    determine dielectric tensor
   LRPA    =     F    only Hartree local field effects (RPA)
   LNABLA  =     F    use nabla operator in PAW spheres
   LVEL    =     F    velocity operator in full k-point grid
   LINTERFAST=   F  fast interpolation
   KINTER  =     0    interpolate to denser k-point grid
   CSHIFT  =0.1000    complex shift for real part using Kramers Kronig
   OMEGAMAX=  -1.0    maximum frequency
   DEG_THRESHOLD= 0.2000000E-02 threshold for treating states as degnerate
   RTIME   =   -0.100 relaxation time in fs
  (WPLASMAI=    0.000 imaginary part of plasma frequency in eV, 0.658/RTIME)
   DFIELD  = 0.0000000 0.0000000 0.0000000 field for delta impulse in time
 
 Orbital magnetization related:
   ORBITALMAG=     F  switch on orbital magnetization
   LCHIMAG   =     F  perturbation theory with respect to B field
   DQ        =  0.001000  dq finite difference perturbation B field
   LLRAUG    =     F  two centre corrections for induced B field



--------------------------------------------------------------------------------------------------------


 Static calculation
 charge density and potential remain constant during run
 non-spin polarized calculation
 RMM-DIIS sequential band-by-band and
  variant of blocked Davidson during initial phase
 perform sub-space diagonalisation
    before iterative eigenvector-optimisation
 no mixing
 using additional bands           68
 real space projection scheme for non local part
 use partial core corrections
 calculate Harris-corrections to forces 
   (improved forces if not selfconsistent)
 use gradient corrections 
 WARNING: stress and forces are not correct
  (second derivative of E(xc) not defined)
 use of overlap-Matrix (Vanderbilt PP)
 Methfessel and Paxton  Order N= 1 SIGMA  =   0.10


--------------------------------------------------------------------------------------------------------


  energy-cutoff  :      400.00
  volume of cell :     2293.20
      direct lattice vectors                 reciprocal lattice vectors
     7.098035846 -4.098052906  0.000000000     0.140884045  0.000000000  0.000000000
     0.000000000  8.196105813  0.000000000     0.070442022  0.122009162  0.000000000
     0.000000000  0.000000000 39.418101795     0.000000000  0.000000000  0.025369055

  length of vectors
     8.196105813  8.196105813 39.418101795     0.140884045  0.140884045  0.025369055


 
 k-points in units of 2pi/SCALE and weight: KPOINT_file_2                           
   0.07044202  0.04066972  0.00000000       0.020
   0.07185086  0.04148312  0.00000000       0.020
   0.07325970  0.04229651  0.00000000       0.020
   0.07466854  0.04310990  0.00000000       0.020
   0.07607738  0.04392330  0.00000000       0.020
   0.07748622  0.04473669  0.00000000       0.020
   0.07889507  0.04555009  0.00000000       0.020
   0.08030391  0.04636348  0.00000000       0.020
   0.08171275  0.04717688  0.00000000       0.020
   0.08312159  0.04799027  0.00000000       0.020
   0.08453043  0.04880366  0.00000000       0.020
   0.08593927  0.04961706  0.00000000       0.020
   0.08734811  0.05043045  0.00000000       0.020
   0.08875695  0.05124385  0.00000000       0.020
   0.09016579  0.05205724  0.00000000       0.020
   0.09157463  0.05287064  0.00000000       0.020
   0.09298347  0.05368403  0.00000000       0.020
   0.09439231  0.05449743  0.00000000       0.020
   0.09580115  0.05531082  0.00000000       0.020
   0.09720999  0.05612421  0.00000000       0.020
   0.09861883  0.05693761  0.00000000       0.020
   0.10002767  0.05775100  0.00000000       0.020
   0.10143651  0.05856440  0.00000000       0.020
   0.10284535  0.05937779  0.00000000       0.020
   0.10425419  0.06019119  0.00000000       0.020
   0.10566303  0.06100458  0.00000000       0.020
   0.10707187  0.06181798  0.00000000       0.020
   0.10848071  0.06263137  0.00000000       0.020
   0.10988955  0.06344476  0.00000000       0.020
   0.11129840  0.06425816  0.00000000       0.020
   0.11270724  0.06507155  0.00000000       0.020
   0.11411608  0.06588495  0.00000000       0.020
   0.11552492  0.06669834  0.00000000       0.020
   0.11693376  0.06751174  0.00000000       0.020
   0.11834260  0.06832513  0.00000000       0.020
   0.11975144  0.06913853  0.00000000       0.020
   0.12116028  0.06995192  0.00000000       0.020
   0.12256912  0.07076531  0.00000000       0.020
   0.12397796  0.07157871  0.00000000       0.020
   0.12538680  0.07239210  0.00000000       0.020
   0.12679564  0.07320550  0.00000000       0.020
   0.12820448  0.07401889  0.00000000       0.020
   0.12961332  0.07483229  0.00000000       0.020
   0.13102216  0.07564568  0.00000000       0.020
   0.13243100  0.07645907  0.00000000       0.020
   0.13383984  0.07727247  0.00000000       0.020
   0.13524868  0.07808586  0.00000000       0.020
   0.13665752  0.07889926  0.00000000       0.020
   0.13806636  0.07971265  0.00000000       0.020
   0.13947520  0.08052605  0.00000000       0.020
   0.14088404  0.08133944  0.00000000       0.020
 
 k-points in reciprocal lattice and weights: KPOINT_file_2                           
   0.33333333  0.33333333  0.00000000       0.020
   0.34000000  0.34000000  0.00000000       0.020
   0.34666667  0.34666667  0.00000000       0.020
   0.35333333  0.35333333  0.00000000       0.020
   0.36000000  0.36000000  0.00000000       0.020
   0.36666667  0.36666667  0.00000000       0.020
   0.37333333  0.37333333  0.00000000       0.020
   0.38000000  0.38000000  0.00000000       0.020
   0.38666667  0.38666667  0.00000000       0.020
   0.39333333  0.39333333  0.00000000       0.020
   0.40000000  0.40000000  0.00000000       0.020
   0.40666667  0.40666667  0.00000000       0.020
   0.41333333  0.41333333  0.00000000       0.020
   0.42000000  0.42000000  0.00000000       0.020
   0.42666667  0.42666667  0.00000000       0.020
   0.43333333  0.43333333  0.00000000       0.020
   0.44000000  0.44000000  0.00000000       0.020
   0.44666667  0.44666667  0.00000000       0.020
   0.45333333  0.45333333  0.00000000       0.020
   0.46000000  0.46000000  0.00000000       0.020
   0.46666667  0.46666667  0.00000000       0.020
   0.47333333  0.47333333  0.00000000       0.020
   0.48000000  0.48000000  0.00000000       0.020
   0.48666667  0.48666667  0.00000000       0.020
   0.49333333  0.49333333  0.00000000       0.020
   0.50000000  0.50000000  0.00000000       0.020
   0.50666667  0.50666667  0.00000000       0.020
   0.51333333  0.51333333  0.00000000       0.020
   0.52000000  0.52000000  0.00000000       0.020
   0.52666667  0.52666667  0.00000000       0.020
   0.53333333  0.53333333  0.00000000       0.020
   0.54000000  0.54000000  0.00000000       0.020
   0.54666667  0.54666667  0.00000000       0.020
   0.55333333  0.55333333  0.00000000       0.020
   0.56000000  0.56000000  0.00000000       0.020
   0.56666667  0.56666667  0.00000000       0.020
   0.57333333  0.57333333  0.00000000       0.020
   0.58000000  0.58000000  0.00000000       0.020
   0.58666667  0.58666667  0.00000000       0.020
   0.59333333  0.59333333  0.00000000       0.020
   0.60000000  0.60000000  0.00000000       0.020
   0.60666667  0.60666667  0.00000000       0.020
   0.61333333  0.61333333  0.00000000       0.020
   0.62000000  0.62000000  0.00000000       0.020
   0.62666667  0.62666667  0.00000000       0.020
   0.63333333  0.63333333  0.00000000       0.020
   0.64000000  0.64000000  0.00000000       0.020
   0.64666667  0.64666667  0.00000000       0.020
   0.65333333  0.65333333  0.00000000       0.020
   0.66000000  0.66000000  0.00000000       0.020
   0.66666667  0.66666667  0.00000000       0.020
 
 position of ions in fractional coordinates (direct lattice) 
   0.00409060  0.33416872  0.35270312
   0.66583128  0.66992188  0.35270312
   0.33007812  0.99590940  0.35270312
   0.00000000  0.00000000  0.38553783
   0.66666667  0.33333333  0.38553783
   0.33333333  0.66666667  0.38553783
   0.33333333  0.33333333  0.39228241
   0.00000000  0.66666667  0.39228241
   0.66666667  0.00000000  0.39228241
   0.00000000  0.33333333  0.43995165
   0.66666667  0.66666667  0.43995165
   0.33333333  0.00000000  0.43995165
   0.00000000  0.00000000  0.45121128
   0.66666667  0.33333333  0.45121128
   0.33333333  0.66666667  0.45121128
   0.33333333  0.33333333  0.49352022
   0.00000000  0.66666667  0.49352022
   0.66666667  0.00000000  0.49352022
   0.00000000  0.33333333  0.50647978
   0.66666667  0.66666667  0.50647978
   0.33333333  0.00000000  0.50647978
   0.00000000  0.00000000  0.54878872
   0.66666667  0.33333333  0.54878872
   0.33333333  0.66666667  0.54878872
   0.33333333  0.33333333  0.56004835
   0.00000000  0.66666667  0.56004835
   0.66666667  0.00000000  0.56004835
   0.00000000  0.33333333  0.60771759
   0.66666667  0.66666667  0.60771759
   0.33333333  0.00000000  0.60771759
   0.00000000  0.00000000  0.61446217
   0.66666667  0.33333333  0.61446217
   0.33333333  0.66666667  0.61446217
   0.33416872  0.33007812  0.64729688
   0.99590940  0.66583128  0.64729688
   0.66992188  0.00409060  0.64729688
   0.21999414  0.12163125  0.36175314
   0.88753862  0.45412957  0.36210441
   0.55334967  0.79137899  0.36247327
   0.23802932  0.44665033  0.36247327
   0.90163711  0.78000586  0.36175314
   0.56659095  0.11246138  0.36210441
   0.54587043  0.43340905  0.36210441
   0.20862101  0.76197068  0.36247327
   0.87836875  0.09836289  0.36175314
   0.77048822  0.22979575  0.41767575
   0.43715489  0.56312908  0.41767575
   0.10382156  0.89646242  0.41767575
   0.10353758  0.20735914  0.41767575
   0.77020425  0.54069247  0.41767575
   0.43687092  0.87402581  0.41767575
   0.45930753  0.22951178  0.41767575
   0.12597419  0.56284511  0.41767575
   0.79264086  0.89617844  0.41767575
   0.89874099  0.12933291  0.47272733
   0.56540765  0.46266624  0.47272733
   0.23207432  0.79599958  0.47272733
   0.89725859  0.43459235  0.47272733
   0.56392526  0.76792568  0.47272733
   0.23059192  0.10125901  0.47272733
   0.20400042  0.43607474  0.47272733
   0.87066709  0.76940808  0.47272733
   0.53733376  0.10274141  0.47272733
   0.12933291  0.23059192  0.52727267
   0.79599958  0.56392526  0.52727267
   0.46266624  0.89725859  0.52727267
   0.43607474  0.23207432  0.52727267
   0.10274141  0.56540765  0.52727267
   0.76940808  0.89874099  0.52727267
   0.43459235  0.53733376  0.52727267
   0.10125901  0.87066709  0.52727267
   0.76792568  0.20400042  0.52727267
   0.89617844  0.10353758  0.58232425
   0.56284511  0.43687092  0.58232425
   0.22951178  0.77020425  0.58232425
   0.20735914  0.10382156  0.58232425
   0.87402581  0.43715489  0.58232425
   0.54069247  0.77048822  0.58232425
   0.22979575  0.45930753  0.58232425
   0.89646242  0.79264086  0.58232425
   0.56312908  0.12597419  0.58232425
   0.79137899  0.23802932  0.63752673
   0.45412957  0.56659095  0.63789559
   0.12163125  0.90163711  0.63824686
   0.09836289  0.21999414  0.63824686
   0.76197068  0.55334967  0.63752673
   0.43340905  0.88753862  0.63789559
   0.11246138  0.54587043  0.63789559
   0.78000586  0.87836875  0.63824686
   0.44665033  0.20862101  0.63752673
   0.00000000  0.00000000  0.70701424
   0.47708487  0.98566408  0.70910839
   0.01433592  0.49142079  0.70910839
   0.50857921  0.52291513  0.70910839
   0.33534063  0.18289043  0.72515065
   0.81710957  0.15245019  0.72515065
   0.33333333  0.66666667  0.73515826
   0.84754981  0.66465937  0.72515065
   0.00000000  0.00000000  0.29298576
   0.52291513  0.01433592  0.29089161
   0.98566408  0.50857921  0.29089161
   0.49142079  0.47708487  0.29089161
   0.66465937  0.81710957  0.27484935
   0.18289043  0.84754981  0.27484935
   0.66666667  0.33333333  0.26484174
   0.15245019  0.33534063  0.27484935
 
 position of ions in cartesian coordinates  (Angst):
   0.02903521  2.72211871 13.90288762
   4.72609429  2.76213878 13.90288762
   2.34290635  6.80990123 13.90288762
   0.00000000  0.00000000 15.19716955
   4.73202390  0.00000000 15.19716955
   2.36601195  4.09805291 15.19716955
   2.36601195  1.36601764 15.46302783
   0.00000000  5.46407054 15.46302783
   4.73202390 -2.73203527 15.46302783
   0.00000000  2.73203527 17.34205903
   4.73202390  2.73203527 17.34205903
   2.36601195 -1.36601764 17.34205903
   0.00000000  0.00000000 17.78589203
   4.73202390  0.00000000 17.78589203
   2.36601195  4.09805291 17.78589203
   2.36601195  1.36601764 19.45363034
   0.00000000  5.46407054 19.45363034
   4.73202390 -2.73203527 19.45363034
   0.00000000  2.73203527 19.96447146
   4.73202390  2.73203527 19.96447146
   2.36601195 -1.36601764 19.96447146
   0.00000000  0.00000000 21.63220977
   4.73202390  0.00000000 21.63220977
   2.36601195  4.09805291 21.63220977
   2.36601195  1.36601764 22.07604276
   0.00000000  5.46407054 22.07604276
   4.73202390 -2.73203527 22.07604276
   0.00000000  2.73203527 23.95507397
   4.73202390  2.73203527 23.95507397
   2.36601195 -1.36601764 23.95507397
   0.00000000  0.00000000 24.22093224
   4.73202390  0.00000000 24.22093224
   2.36601195  4.09805291 24.22093224
   2.37194156  1.33591413 25.51521417
   7.06900064  1.37593420 25.51521417
   4.75512950 -2.71184833 25.51521417
   1.56152629  0.09535499 14.25962221
   6.29978096  0.08491380 14.27346853
   3.92769577  4.21856970 14.28800807
   1.68954064  2.68533665 14.28800807
   6.39985255  2.69805397 14.25962221
   4.02168288 -1.40017434 14.27346853
   3.87460786  1.31526054 14.27346853
   1.48079943  5.39025237 14.28800807
   6.23469286 -2.79340897 14.25962221
   5.46895303 -1.27407122 16.46398536
   3.10294108  2.82398169 16.46398536
   0.73692914  6.92203460 16.46398536
   0.73491347  1.27523496 16.46398536
   5.46693737  1.27523496 16.46398536
   3.10092542  5.37328787 16.46398536
   3.26018129 -0.00116374 16.46398536
   0.89416934  4.09688916 16.46398536
   5.62619324  4.09688916 16.46398536
   6.37929574 -2.62306189 18.63401389
   4.01328379  1.47499102 18.63401389
   1.64727184  5.57304393 18.63401389
   6.36877365 -0.11504832 18.63401389
   4.00276170  3.98300459 18.63401389
   1.63674975 -0.11504832 18.63401389
   1.44800231  2.73811020 18.63401389
   6.18002621  2.73811020 18.63401389
   3.81401426 -1.35994270 18.63401389
   0.91800964  1.35994270 20.78408790
   5.65003354  1.35994270 20.78408790
   3.28402159  5.45799561 20.78408790
   3.09527415  0.11504832 20.78408790
   0.72926220  4.21310122 20.78408790
   5.46128610  4.21310122 20.78408790
   3.08475206  2.62306189 20.78408790
   0.71874011  6.72111479 20.78408790
   5.45076401 -1.47499102 20.78408790
   6.36110671 -2.82398169 22.95411644
   3.99509476  1.27407122 22.95411644
   1.62908281  5.37212412 22.95411644
   1.47184261  0.00116374 22.95411644
   6.20386650  0.00116374 22.95411644
   3.83785456  4.09921665 22.95411644
   1.63109848  2.82281795 22.95411644
   6.36312237  2.82281795 22.95411644
   3.99711043 -1.27523496 22.95411644
   5.61723641 -1.29219947 25.13009373
   3.22342799  2.78279236 25.14463326
   0.86334299  6.89146187 25.15847959
   0.69818330  1.39999893 25.15847959
   5.40849520  1.41271626 25.13009373
   3.07635297  5.49822725 25.14463326
   0.79825489  4.01313910 25.14463326
   5.53650956  4.00269791 25.15847959
   3.17034008 -0.12051679 25.13009373
   0.00000000  0.00000000 27.86915924
   3.38636554  6.12348807 27.95170662
   0.10175684  3.96898746 27.95170662
   3.60991346  2.20168319 27.95170662
   2.38025978  0.12474572 28.58406213
   5.79987300 -2.09906033 28.58406213
   2.36601195  4.09805291 28.97854317
   6.01593892  1.97431461 28.58406213
   0.00000000  0.00000000 11.54894255
   3.71167030 -2.02543517 11.46639517
   6.99627900  0.12906545 11.46639517
   3.48812239  1.89636972 11.46639517
   4.71777607  3.97330719 10.83403967
   1.29816285  6.19711324 10.83403967
   4.73202390 -0.00000000 10.43955862
   1.08209693  2.12373830 10.83403967
 


--------------------------------------------------------------------------------------------------------


 k-point  1 :   0.3333 0.3333 0.0000  plane waves:   41538
 k-point  2 :   0.3400 0.3400 0.0000  plane waves:   41536
 k-point  3 :   0.3467 0.3467 0.0000  plane waves:   41582
 k-point  4 :   0.3533 0.3533 0.0000  plane waves:   41590
 k-point  5 :   0.3600 0.3600 0.0000  plane waves:   41600
 k-point  6 :   0.3667 0.3667 0.0000  plane waves:   41594
 k-point  7 :   0.3733 0.3733 0.0000  plane waves:   41596
 k-point  8 :   0.3800 0.3800 0.0000  plane waves:   41584
 k-point  9 :   0.3867 0.3867 0.0000  plane waves:   41582
 k-point 10 :   0.3933 0.3933 0.0000  plane waves:   41584
 k-point 11 :   0.4000 0.4000 0.0000  plane waves:   41590
 k-point 12 :   0.4067 0.4067 0.0000  plane waves:   41590
 k-point 13 :   0.4133 0.4133 0.0000  plane waves:   41600
 k-point 14 :   0.4200 0.4200 0.0000  plane waves:   41606
 k-point 15 :   0.4267 0.4267 0.0000  plane waves:   41650
 k-point 16 :   0.4333 0.4333 0.0000  plane waves:   41670
 k-point 17 :   0.4400 0.4400 0.0000  plane waves:   41648
 k-point 18 :   0.4467 0.4467 0.0000  plane waves:   41654
 k-point 19 :   0.4533 0.4533 0.0000  plane waves:   41666
 k-point 20 :   0.4600 0.4600 0.0000  plane waves:   41640
 k-point 21 :   0.4667 0.4667 0.0000  plane waves:   41648
 k-point 22 :   0.4733 0.4733 0.0000  plane waves:   41650
 k-point 23 :   0.4800 0.4800 0.0000  plane waves:   41676
 k-point 24 :   0.4867 0.4867 0.0000  plane waves:   41648
 k-point 25 :   0.4933 0.4933 0.0000  plane waves:   41664
 k-point 26 :   0.5000 0.5000 0.0000  plane waves:   41678
 k-point 27 :   0.5067 0.5067 0.0000  plane waves:   41664
 k-point 28 :   0.5133 0.5133 0.0000  plane waves:   41648
 k-point 29 :   0.5200 0.5200 0.0000  plane waves:   41676
 k-point 30 :   0.5267 0.5267 0.0000  plane waves:   41650
 k-point 31 :   0.5333 0.5333 0.0000  plane waves:   41648
 k-point 32 :   0.5400 0.5400 0.0000  plane waves:   41640
 k-point 33 :   0.5467 0.5467 0.0000  plane waves:   41666
 k-point 34 :   0.5533 0.5533 0.0000  plane waves:   41654
 k-point 35 :   0.5600 0.5600 0.0000  plane waves:   41648
 k-point 36 :   0.5667 0.5667 0.0000  plane waves:   41670
 k-point 37 :   0.5733 0.5733 0.0000  plane waves:   41650
 k-point 38 :   0.5800 0.5800 0.0000  plane waves:   41606
 k-point 39 :   0.5867 0.5867 0.0000  plane waves:   41600
 k-point 40 :   0.5933 0.5933 0.0000  plane waves:   41590
 k-point 41 :   0.6000 0.6000 0.0000  plane waves:   41590
 k-point 42 :   0.6067 0.6067 0.0000  plane waves:   41584
 k-point 43 :   0.6133 0.6133 0.0000  plane waves:   41582
 k-point 44 :   0.6200 0.6200 0.0000  plane waves:   41584
 k-point 45 :   0.6267 0.6267 0.0000  plane waves:   41596
 k-point 46 :   0.6333 0.6333 0.0000  plane waves:   41594
 k-point 47 :   0.6400 0.6400 0.0000  plane waves:   41600
 k-point 48 :   0.6467 0.6467 0.0000  plane waves:   41590
 k-point 49 :   0.6533 0.6533 0.0000  plane waves:   41582
 k-point 50 :   0.6600 0.6600 0.0000  plane waves:   41536
 k-point 51 :   0.6667 0.6667 0.0000  plane waves:   41538

 maximum and minimum number of plane-waves per node :     41678    41536

 maximum number of plane-waves:     41678
 maximum index in each direction: 
   IXMAX=   13   IYMAX=   13   IZMAX=   64
   IXMIN=  -14   IYMIN=  -14   IZMIN=  -64


 serial   3D FFT for wavefunctions
 parallel 3D FFT for charge:
    minimum data exchange during FFTs selected (reduces bandwidth)


 total amount of memory used by VASP MPI-rank0  3715563. kBytes
=======================================================================

   base      :      30000. kBytes
   nonlr-proj:      46657. kBytes
   fftplans  :      56155. kBytes
   grid      :     132596. kBytes
   one-center:       1648. kBytes
   wavefun   :    3448507. kBytes
 
     INWAV:  cpu time    0.0000: real time    0.0016
 initial charge density was supplied:
 number of electron     656.0000161 magnetization 
 keeping initial charge density in first step


--------------------------------------------------------------------------------------------------------


 Maximum index for non-local projection operator         4799
 Maximum index for augmentation-charges         3225 (set IRDMAX)


--------------------------------------------------------------------------------------------------------


 First call to EWALD:  gamma=   0.134
 Maximum number of real-space cells 5x 5x 1
 Maximum number of reciprocal cells 2x 2x 7

    FEWALD:  cpu time    0.0211: real time    0.0420


----------------------------------------- Iteration    1(   1)  ---------------------------------------


vdW kernel read from vdw_kernel.bindat
  0.0000  0.2424  0.5071  0.7962  1.1119  1.4567  1.8333  2.2446  2.6937  3.1842
  3.7199  4.3049  4.9438  5.6415  6.4036  7.2358  8.1446  9.1372 10.2212 11.4050
 12.6979 14.1099 15.6519 17.3360 19.1751 21.1837 23.3773 25.7729 28.3892 31.2465
 34.3669 37.7748 41.4965 45.5611 50.0000
 
    POTLOK:  cpu time   51.8057: real time  103.6528
    SETDIJ:  cpu time    0.0443: real time    0.0964
     EDDAV:  cpu time  168.5779: real time  337.8466
       DOS:  cpu time    0.0166: real time    0.0272
    --------------------------------------------
      LOOP:  cpu time  220.4470: real time  441.6253

 eigenvalue-minimisations  : 50324
 total energy-change (2. order) : 0.1257886E+05  (-0.1746298E+05)
 number of electron     656.0000161 magnetization 
 augmentation part      656.0000161 magnetization 

 Free energy of the ion-electron system (eV)
  ---------------------------------------------------
  alpha Z        PSCENC =      1009.80004948
  Ewald energy   TEWEN  =    475818.26566418
  -Hartree energ DENC   =   -533312.02652926
  -exchange      EXHF   =         0.00000000
  -V(xc)+E(xc)   XCENC  =      1759.57716516
  PAW double counting   =     45342.40537549   -51122.04895780
  entropy T*S    EENTRO =        -0.00305231
  eigenvalues    EBANDS =      6094.46056888
  atomic energy  EATOM  =     66988.42750902
  Solvation  Ediel_sol  =         0.00000000
  ---------------------------------------------------
  free energy    TOTEN  =     12578.85779285 eV

  energy without entropy =    12578.86084516  energy(sigma->0) =    12578.85881029


--------------------------------------------------------------------------------------------------------




----------------------------------------- Iteration    1(   2)  ---------------------------------------


     EDDAV:  cpu time  150.8862: real time  302.3418
       DOS:  cpu time    0.0595: real time    0.1134
    --------------------------------------------
      LOOP:  cpu time  150.9461: real time  302.4557

 eigenvalue-minimisations  : 44800
 total energy-change (2. order) :-0.1032402E+05  (-0.9882837E+04)
 number of electron     656.0000161 magnetization 
 augmentation part      656.0000161 magnetization 

 Free energy of the ion-electron system (eV)
  ---------------------------------------------------
  alpha Z        PSCENC =      1009.80004948
  Ewald energy   TEWEN  =    475818.26566418
  -Hartree energ DENC   =   -533312.02652926
  -exchange      EXHF   =         0.00000000
  -V(xc)+E(xc)   XCENC  =      1759.57716516
  PAW double counting   =     45342.40537549   -51122.04895780
  entropy T*S    EENTRO =         0.00010006
  eigenvalues    EBANDS =     -4229.56087531
  atomic energy  EATOM  =     66988.42750902
  Solvation  Ediel_sol  =         0.00000000
  ---------------------------------------------------
  free energy    TOTEN  =      2254.83950104 eV

  energy without entropy =     2254.83940098  energy(sigma->0) =     2254.83946769


--------------------------------------------------------------------------------------------------------




----------------------------------------- Iteration    1(   3)  ---------------------------------------


     EDDAV:  cpu time  172.9796: real time  346.5600
       DOS:  cpu time    0.0124: real time    0.0254
    --------------------------------------------
      LOOP:  cpu time  172.9926: real time  346.5940

 eigenvalue-minimisations  : 51472
 total energy-change (2. order) :-0.2613235E+04  (-0.2405021E+04)
 number of electron     656.0000161 magnetization 
 augmentation part      656.0000161 magnetization 

 Free energy of the ion-electron system (eV)
  ---------------------------------------------------
  alpha Z        PSCENC =      1009.80004948
  Ewald energy   TEWEN  =    475818.26566418
  -Hartree energ DENC   =   -533312.02652926
  -exchange      EXHF   =         0.00000000
  -V(xc)+E(xc)   XCENC  =      1759.57716516
  PAW double counting   =     45342.40537549   -51122.04895780
  entropy T*S    EENTRO =         0.00377325
  eigenvalues    EBANDS =     -6842.79990267
  atomic energy  EATOM  =     66988.42750902
  Solvation  Ediel_sol  =         0.00000000
  ---------------------------------------------------
  free energy    TOTEN  =      -358.39585313 eV

  energy without entropy =     -358.39962638  energy(sigma->0) =     -358.39711088


--------------------------------------------------------------------------------------------------------




----------------------------------------- Iteration    1(   4)  ---------------------------------------


     EDDAV:  cpu time  161.6032: real time  323.8433
       DOS:  cpu time    0.0147: real time    0.0285
    --------------------------------------------
      LOOP:  cpu time  161.6190: real time  323.8722

 eigenvalue-minimisations  : 47528
 total energy-change (2. order) :-0.3604232E+03  (-0.3483072E+03)
 number of electron     656.0000161 magnetization 
 augmentation part      656.0000161 magnetization 

 Free energy of the ion-electron system (eV)
  ---------------------------------------------------
  alpha Z        PSCENC =      1009.80004948
  Ewald energy   TEWEN  =    475818.26566418
  -Hartree energ DENC   =   -533312.02652926
  -exchange      EXHF   =         0.00000000
  -V(xc)+E(xc)   XCENC  =      1759.57716516
  PAW double counting   =     45342.40537549   -51122.04895780
  entropy T*S    EENTRO =         0.00453026
  eigenvalues    EBANDS =     -7203.22383747
  atomic energy  EATOM  =     66988.42750902
  Solvation  Ediel_sol  =         0.00000000
  ---------------------------------------------------
  free energy    TOTEN  =      -718.81903093 eV

  energy without entropy =     -718.82356119  energy(sigma->0) =     -718.82054102


--------------------------------------------------------------------------------------------------------




----------------------------------------- Iteration    1(   5)  ---------------------------------------


     EDDAV:  cpu time  169.8671: real time  340.7181
       DOS:  cpu time    0.0420: real time    0.0836
    --------------------------------------------
      LOOP:  cpu time  169.9101: real time  340.8021

 eigenvalue-minimisations  : 49280
 total energy-change (2. order) :-0.1657695E+02  (-0.1652688E+02)
 number of electron     656.0000161 magnetization 
 augmentation part      656.0000161 magnetization 

 Free energy of the ion-electron system (eV)
  ---------------------------------------------------
  alpha Z        PSCENC =      1009.80004948
  Ewald energy   TEWEN  =    475818.26566418
  -Hartree energ DENC   =   -533312.02652926
  -exchange      EXHF   =         0.00000000
  -V(xc)+E(xc)   XCENC  =      1759.57716516
  PAW double counting   =     45342.40537549   -51122.04895780
  entropy T*S    EENTRO =         0.00463882
  eigenvalues    EBANDS =     -7219.80089591
  atomic energy  EATOM  =     66988.42750902
  Solvation  Ediel_sol  =         0.00000000
  ---------------------------------------------------
  free energy    TOTEN  =      -735.39598081 eV

  energy without entropy =     -735.40061963  energy(sigma->0) =     -735.39752709


--------------------------------------------------------------------------------------------------------




----------------------------------------- Iteration    1(   6)  ---------------------------------------


    EDDIAG:  cpu time   27.9652: real time   56.0881
  RMM-DIIS:  cpu time   56.6716: real time  113.4502
    ORTHCH:  cpu time    8.8684: real time   17.7450
       DOS:  cpu time    0.0165: real time    0.0405
    --------------------------------------------
      LOOP:  cpu time   93.5228: real time  187.3244

 eigenvalue-minimisations  : 59606
 total energy-change (2. order) :-0.6497979E+00  (-0.6497978E+00)
 number of electron     656.0000161 magnetization 
 augmentation part      656.0000161 magnetization 

 Free energy of the ion-electron system (eV)
  ---------------------------------------------------
  alpha Z        PSCENC =      1009.80004948
  Ewald energy   TEWEN  =    475818.26566418
  -Hartree energ DENC   =   -533312.02652926
  -exchange      EXHF   =         0.00000000
  -V(xc)+E(xc)   XCENC  =      1759.57716516
  PAW double counting   =     45342.40537549   -51122.04895780
  entropy T*S    EENTRO =         0.00464809
  eigenvalues    EBANDS =     -7220.45070305
  atomic energy  EATOM  =     66988.42750902
  Solvation  Ediel_sol  =         0.00000000
  ---------------------------------------------------
  free energy    TOTEN  =      -736.04577867 eV

  energy without entropy =     -736.05042677  energy(sigma->0) =     -736.04732804


--------------------------------------------------------------------------------------------------------




----------------------------------------- Iteration    1(   7)  ---------------------------------------


    EDDIAG:  cpu time   25.6806: real time   51.4070
  RMM-DIIS:  cpu time   67.1053: real time  134.3629
    ORTHCH:  cpu time   13.1028: real time   26.3147
       DOS:  cpu time    0.0385: real time    0.0727
    --------------------------------------------
      LOOP:  cpu time  105.9278: real time  212.1579

 eigenvalue-minimisations  : 72074
 total energy-change (2. order) :-0.5203428E-01  (-0.7802609E-01)
 number of electron     656.0000161 magnetization 
 augmentation part      656.0000161 magnetization 

 Free energy of the ion-electron system (eV)
  ---------------------------------------------------
  alpha Z        PSCENC =      1009.80004948
  Ewald energy   TEWEN  =    475818.26566418
  -Hartree energ DENC   =   -533312.02652926
  -exchange      EXHF   =         0.00000000
  -V(xc)+E(xc)   XCENC  =      1759.57716516
  PAW double counting   =     45342.40537549   -51122.04895780
  entropy T*S    EENTRO =         0.00464912
  eigenvalues    EBANDS =     -7220.50273835
  atomic energy  EATOM  =     66988.42750902
  Solvation  Ediel_sol  =         0.00000000
  ---------------------------------------------------
  free energy    TOTEN  =      -736.09781295 eV

  energy without entropy =     -736.10246207  energy(sigma->0) =     -736.09936265


--------------------------------------------------------------------------------------------------------




----------------------------------------- Iteration    1(   8)  ---------------------------------------


    EDDIAG:  cpu time   28.2335: real time   56.5909
  RMM-DIIS:  cpu time   59.1286: real time  118.3528
    ORTHCH:  cpu time   10.0406: real time   20.1285
       DOS:  cpu time    0.0182: real time    0.0371
    --------------------------------------------
      LOOP:  cpu time   97.4231: real time  195.1143

 eigenvalue-minimisations  : 64577
 total energy-change (2. order) : 0.2303911E-01  (-0.4334134E-02)
 number of electron     656.0000161 magnetization 
 augmentation part      656.0000161 magnetization 

 Free energy of the ion-electron system (eV)
  ---------------------------------------------------
  alpha Z        PSCENC =      1009.80004948
  Ewald energy   TEWEN  =    475818.26566418
  -Hartree energ DENC   =   -533312.02652926
  -exchange      EXHF   =         0.00000000
  -V(xc)+E(xc)   XCENC  =      1759.57716516
  PAW double counting   =     45342.40537549   -51122.04895780
  entropy T*S    EENTRO =         0.00459670
  eigenvalues    EBANDS =     -7220.47964682
  atomic energy  EATOM  =     66988.42750902
  Solvation  Ediel_sol  =         0.00000000
  ---------------------------------------------------
  free energy    TOTEN  =      -736.07477384 eV

  energy without entropy =     -736.07937054  energy(sigma->0) =     -736.07630607


--------------------------------------------------------------------------------------------------------




----------------------------------------- Iteration    1(   9)  ---------------------------------------


    EDDIAG:  cpu time   31.2109: real time   62.6607
  RMM-DIIS:  cpu time   69.3149: real time  138.7663
    ORTHCH:  cpu time    9.9616: real time   19.9538
       DOS:  cpu time    0.0144: real time    0.0311
    --------------------------------------------
      LOOP:  cpu time  110.5031: real time  221.4125

 eigenvalue-minimisations  : 71156
 total energy-change (2. order) :-0.8943122E-03  (-0.1088074E-02)
 number of electron     656.0000161 magnetization 
 augmentation part      656.0000161 magnetization 

 Free energy of the ion-electron system (eV)
  ---------------------------------------------------
  alpha Z        PSCENC =      1009.80004948
  Ewald energy   TEWEN  =    475818.26566418
  -Hartree energ DENC   =   -533312.02652926
  -exchange      EXHF   =         0.00000000
  -V(xc)+E(xc)   XCENC  =      1759.57716516
  PAW double counting   =     45342.40537549   -51122.04895780
  entropy T*S    EENTRO =         0.00464869
  eigenvalues    EBANDS =     -7220.48059313
  atomic energy  EATOM  =     66988.42750902
  Solvation  Ediel_sol  =         0.00000000
  ---------------------------------------------------
  free energy    TOTEN  =      -736.07566815 eV

  energy without entropy =     -736.08031684  energy(sigma->0) =     -736.07721771


--------------------------------------------------------------------------------------------------------




----------------------------------------- Iteration    1(  10)  ---------------------------------------


    EDDIAG:  cpu time   26.3550: real time   52.7675
  RMM-DIIS:  cpu time   58.2267: real time  116.6030
    ORTHCH:  cpu time    9.9394: real time   19.9061
       DOS:  cpu time    0.0183: real time    0.0378
    --------------------------------------------
      LOOP:  cpu time   94.5400: real time  189.3150

 eigenvalue-minimisations  : 63188
 total energy-change (2. order) : 0.1204641E-03  (-0.9679940E-04)
 number of electron     656.0000161 magnetization 
 augmentation part      656.0000161 magnetization 

 Free energy of the ion-electron system (eV)
  ---------------------------------------------------
  alpha Z        PSCENC =      1009.80004948
  Ewald energy   TEWEN  =    475818.26566418
  -Hartree energ DENC   =   -533312.02652926
  -exchange      EXHF   =         0.00000000
  -V(xc)+E(xc)   XCENC  =      1759.57716516
  PAW double counting   =     45342.40537549   -51122.04895780
  entropy T*S    EENTRO =         0.00464869
  eigenvalues    EBANDS =     -7220.48047266
  atomic energy  EATOM  =     66988.42750902
  Solvation  Ediel_sol  =         0.00000000
  ---------------------------------------------------
  free energy    TOTEN  =      -736.07554768 eV

  energy without entropy =     -736.08019638  energy(sigma->0) =     -736.07709725


--------------------------------------------------------------------------------------------------------




----------------------------------------- Iteration    1(  11)  ---------------------------------------


    EDDIAG:  cpu time   26.1805: real time   52.3976
WARNING in EDDRMM: call to ZHEGV failed, returncode =   8  4 72
WARNING in EDDRMM: call to ZHEGV failed, returncode =   8  4 69
WARNING in EDDRMM: call to ZHEGV failed, returncode =   8  4 36
WARNING in EDDRMM: call to ZHEGV failed, returncode =   6  3 66
  RMM-DIIS:  cpu time   56.2600: real time  112.6236
    ORTHCH:  cpu time   10.6529: real time   21.3896
       DOS:  cpu time    0.0155: real time    0.0257
    --------------------------------------------
      LOOP:  cpu time   93.1094: real time  186.4369

 eigenvalue-minimisations  : 59697
 total energy-change (2. order) :-0.8474744E-05  (-0.2510654E-04)
 number of electron     656.0000161 magnetization 
 augmentation part      656.0000161 magnetization 

 Free energy of the ion-electron system (eV)
  ---------------------------------------------------
  alpha Z        PSCENC =      1009.80004948
  Ewald energy   TEWEN  =    475818.26566418
  -Hartree energ DENC   =   -533312.02652926
  -exchange      EXHF   =         0.00000000
  -V(xc)+E(xc)   XCENC  =      1759.57716516
  PAW double counting   =     45342.40537549   -51122.04895780
  entropy T*S    EENTRO =         0.00464869
  eigenvalues    EBANDS =     -7220.48048113
  atomic energy  EATOM  =     66988.42750902
  Solvation  Ediel_sol  =         0.00000000
  ---------------------------------------------------
  free energy    TOTEN  =      -736.07555616 eV

  energy without entropy =     -736.08020485  energy(sigma->0) =     -736.07710572


--------------------------------------------------------------------------------------------------------




----------------------------------------- Iteration    1(  12)  ---------------------------------------


    EDDIAG:  cpu time   26.7466: real time   53.5829
WARNING in EDDRMM: call to ZHEGV failed, returncode =   8  4 85
  RMM-DIIS:  cpu time   43.5086: real time   87.1244
    ORTHCH:  cpu time    9.7593: real time   19.5548
       DOS:  cpu time    0.0138: real time    0.0270
    --------------------------------------------
      LOOP:  cpu time   80.0291: real time  160.2899

 eigenvalue-minimisations  : 47451
 total energy-change (2. order) : 0.4315778E-05  (-0.2662131E-05)
 number of electron     656.0000161 magnetization 
 augmentation part      656.0000161 magnetization 

 Free energy of the ion-electron system (eV)
  ---------------------------------------------------
  alpha Z        PSCENC =      1009.80004948
  Ewald energy   TEWEN  =    475818.26566418
  -Hartree energ DENC   =   -533312.02652926
  -exchange      EXHF   =         0.00000000
  -V(xc)+E(xc)   XCENC  =      1759.57716516
  PAW double counting   =     45342.40537549   -51122.04895780
  entropy T*S    EENTRO =         0.00464869
  eigenvalues    EBANDS =     -7220.48047682
  atomic energy  EATOM  =     66988.42750902
  Solvation  Ediel_sol  =         0.00000000
  ---------------------------------------------------
  free energy    TOTEN  =      -736.07555184 eV

  energy without entropy =     -736.08020054  energy(sigma->0) =     -736.07710141


--------------------------------------------------------------------------------------------------------




----------------------------------------- Iteration    1(  13)  ---------------------------------------


    EDDIAG:  cpu time   26.1191: real time   52.2952
WARNING in EDDRMM: call to ZHEGV failed, returncode =   8  4 82
  RMM-DIIS:  cpu time   40.3907: real time   80.8789
    ORTHCH:  cpu time    9.6909: real time   19.4412
       DOS:  cpu time    0.0178: real time    0.0342
    --------------------------------------------
      LOOP:  cpu time   76.2198: real time  152.6502

 eigenvalue-minimisations  : 42384
 total energy-change (2. order) :-0.3379537E-06  (-0.6338317E-06)
 number of electron     656.0000161 magnetization 
 augmentation part      656.0000161 magnetization 

 Free energy of the ion-electron system (eV)
  ---------------------------------------------------
  alpha Z        PSCENC =      1009.80004948
  Ewald energy   TEWEN  =    475818.26566418
  -Hartree energ DENC   =   -533312.02652926
  -exchange      EXHF   =         0.00000000
  -V(xc)+E(xc)   XCENC  =      1759.57716516
  PAW double counting   =     45342.40537549   -51122.04895780
  entropy T*S    EENTRO =         0.00464869
  eigenvalues    EBANDS =     -7220.48047716
  atomic energy  EATOM  =     66988.42750902
  Solvation  Ediel_sol  =         0.00000000
  ---------------------------------------------------
  free energy    TOTEN  =      -736.07555218 eV

  energy without entropy =     -736.08020087  energy(sigma->0) =     -736.07710175


--------------------------------------------------------------------------------------------------------




 average (electrostatic) potential at core
  the test charge radii are     1.0406  0.7215  0.9911
  (the norm of the test charge is              1.0000)
       1 -77.7438       2 -77.7438       3 -77.7439       4 -77.1478       5 -77.2065
       6 -76.9779       7 -77.4376       8 -77.4378       9 -77.4376      10 -77.3627
      11 -77.3625      12 -77.3628      13 -77.5362      14 -77.5629      15 -77.5102
      16 -77.5111      17 -77.5116      18 -77.5117      19 -77.5116      20 -77.5111
      21 -77.5117      22 -77.5362      23 -77.5102      24 -77.5629      25 -77.3625
      26 -77.3627      27 -77.3628      28 -77.4378      29 -77.4376      30 -77.4376
      31 -77.1478      32 -76.9779      33 -77.2065      34 -77.7438      35 -77.7438
      36 -77.7439      37 -75.3917      38 -75.5119      39 -75.2597      40 -75.2597
      41 -75.3917      42 -75.5119      43 -75.5118      44 -75.2598      45 -75.3917
      46 -75.4376      47 -75.3229      48 -75.3853      49 -75.3851      50 -75.4376
      51 -75.3231      52 -75.4376      53 -75.3231      54 -75.3852      55 -75.5498
      56 -75.5505      57 -75.5365      58 -75.5509      59 -75.5362      60 -75.5497
      61 -75.5363      62 -75.5496      63 -75.5509      64 -75.5496      65 -75.5363
      66 -75.5509      67 -75.5362      68 -75.5509      69 -75.5497      70 -75.5505
      71 -75.5498      72 -75.5365      73 -75.3853      74 -75.3229      75 -75.4376
      76 -75.3852      77 -75.3231      78 -75.4376      79 -75.4376      80 -75.3851
      81 -75.3231      82 -75.2598      83 -75.5118      84 -75.3917      85 -75.3917
      86 -75.2597      87 -75.5119      88 -75.5119      89 -75.3917      90 -75.2597
      91 -37.9540      92 -37.8584      93 -37.8584      94 -37.8581      95 -37.7334
      96 -37.7334      97 -37.5826      98 -37.7334      99 -37.9540     100 -37.8584
     101 -37.8584     102 -37.8581     103 -37.7334     104 -37.7334     105 -37.5826
     106 -37.7334
 
 
 
 E-fermi :   0.3790     XC(G=0):  -6.1243     alpha+bet : -6.9398


 k-point     1 :       0.3333    0.3333    0.0000
  band No.  band energies     occupation 
      1     -24.3892      2.00000
      2     -24.3892      2.00000
      3     -24.3649      2.00000
      4     -24.3649      2.00000
      5     -24.3636      2.00000
      6     -24.3636      2.00000
      7     -24.3165      2.00000
      8     -24.3165      2.00000
      9     -24.3144      2.00000
     10     -24.3144      2.00000
     11     -24.3041      2.00000
     12     -24.3041      2.00000
     13     -24.2995      2.00000
     14     -24.2995      2.00000
     15     -24.2976      2.00000
     16     -24.2976      2.00000
     17     -24.2958      2.00000
     18     -24.2958      2.00000
     19     -24.2815      2.00000
     20     -24.2815      2.00000
     21     -24.2776      2.00000
     22     -24.2776      2.00000
     23     -24.2657      2.00000
     24     -24.2656      2.00000
     25     -24.2610      2.00000
     26     -24.2610      2.00000
     27     -24.2559      2.00000
     28     -24.2559      2.00000
     29     -24.2298      2.00000
     30     -24.2298      2.00000
     31     -24.2118      2.00000
     32     -24.2118      2.00000
     33     -24.2100      2.00000
     34     -24.2100      2.00000
     35     -24.1990      2.00000
     36     -24.1990      2.00000
     37     -24.1961      2.00000
     38     -24.1961      2.00000
     39     -24.1774      2.00000
     40     -24.1774      2.00000
     41     -24.1039      2.00000
     42     -24.1039      2.00000
     43     -24.0985      2.00000
     44     -24.0985      2.00000
     45     -24.0924      2.00000
     46     -24.0924      2.00000
     47     -24.0918      2.00000
     48     -24.0918      2.00000
     49     -24.0911      2.00000
     50     -24.0911      2.00000
     51     -24.0829      2.00000
     52     -24.0829      2.00000
     53     -24.0724      2.00000
     54     -24.0724      2.00000
     55     -24.0717      2.00000
     56     -24.0717      2.00000
     57     -24.0708      2.00000
     58     -24.0708      2.00000
     59     -24.0479      2.00000
     60     -24.0479      2.00000
     61     -24.0357      2.00000
     62     -24.0357      2.00000
     63     -24.0232      2.00000
     64     -24.0232      2.00000
     65     -24.0130      2.00000
     66     -24.0130      2.00000
     67     -23.9943      2.00000
     68     -23.9943      2.00000
     69     -23.9839      2.00000
     70     -23.9839      2.00000
     71     -23.9405      2.00000
     72     -23.9405      2.00000
     73     -23.9240      2.00000
     74     -23.9240      2.00000
     75     -23.9217      2.00000
     76     -23.9217      2.00000
     77     -23.8901      2.00000
     78     -23.8901      2.00000
     79     -23.8865      2.00000
     80     -23.8865      2.00000
     81     -19.5351      2.00000
     82     -19.5350      2.00000
     83     -19.5349      2.00000
     84     -19.1610      2.00000
     85     -19.1609      2.00000
     86     -19.1553      2.00000
     87     -18.8220      2.00000
     88     -18.8219      2.00000
     89     -18.8114      2.00000
     90     -18.4621      2.00000
     91     -18.4620      2.00000
     92     -18.4569      2.00000
     93     -18.1662      2.00000
     94     -18.1616      2.00000
     95     -18.1616      2.00000
     96     -18.0201      2.00000
     97     -18.0066      2.00000
     98     -18.0066      2.00000
     99     -17.8610      2.00000
    100     -17.8455      2.00000
    101     -17.8455      2.00000
    102     -17.7734      2.00000
    103     -17.7732      2.00000
    104     -17.7731      2.00000
    105     -17.7264      2.00000
    106     -17.7062      2.00000
    107     -17.7062      2.00000
    108     -17.5990      2.00000
[...]
   -.570E+01 0.631E+01 0.168E+04   -.311E+01 -.135E+02 -.169E+04   0.879E+01 0.730E+01 0.945E+01   0.117E-01 -.596E-01 -.281E+00
   -.505E+01 -.347E+00 0.169E+04   -.420E+01 -.763E+01 -.170E+04   0.933E+01 0.799E+01 0.113E+02   -.706E-01 -.282E-01 -.578E-01
   0.927E+01 -.187E+02 0.169E+04   -.193E+02 0.112E+02 -.170E+04   0.100E+02 0.754E+01 0.105E+02   -.312E-01 -.201E-01 -.173E+00
   -.106E+02 0.311E+02 0.101E+04   0.107E+02 -.351E+02 -.100E+04   -.161E+00 0.363E+01 -.116E+01   -.788E-01 0.130E+00 -.112E+00
   -.118E+02 0.320E+02 0.100E+04   0.115E+02 -.357E+02 -.100E+04   0.139E+00 0.347E+01 -.628E+00   0.100E-01 -.243E-01 -.247E-02
   -.109E+02 0.313E+02 0.100E+04   0.109E+02 -.352E+02 -.100E+04   -.144E+00 0.373E+01 -.101E+01   -.302E-01 0.573E-01 0.549E-02
   -.217E+02 -.251E+02 0.100E+04   0.250E+02 0.270E+02 -.100E+04   -.315E+01 -.199E+01 -.101E+01   -.343E-01 -.491E-01 0.572E-02
   -.217E+02 -.248E+02 0.101E+04   0.250E+02 0.268E+02 -.100E+04   -.306E+01 -.195E+01 -.116E+01   -.735E-01 -.133E+00 -.111E+00
   -.218E+02 -.262E+02 0.100E+04   0.251E+02 0.278E+02 -.100E+04   -.307E+01 -.161E+01 -.628E+00   0.164E-01 0.202E-01 -.305E-02
   0.323E+02 -.637E+01 0.101E+04   -.357E+02 0.830E+01 -.100E+04   0.322E+01 -.168E+01 -.116E+01   0.152E+00 0.391E-02 -.111E+00
   0.336E+02 -.582E+01 0.100E+04   -.366E+02 0.784E+01 -.100E+04   0.293E+01 -.185E+01 -.628E+00   -.257E-01 0.287E-02 -.307E-02
   0.326E+02 -.619E+01 0.100E+04   -.359E+02 0.817E+01 -.100E+04   0.330E+01 -.174E+01 -.101E+01   0.597E-01 0.243E-03 0.570E-02
   0.164E+02 0.285E+02 0.337E+03   -.169E+02 -.298E+02 -.336E+03   0.326E+00 0.105E+01 -.421E+00   0.274E-01 0.670E-01 0.204E-01
   0.163E+02 0.288E+02 0.337E+03   -.168E+02 -.300E+02 -.336E+03   0.367E+00 0.998E+00 -.428E+00   0.397E-01 0.460E-01 0.246E-02
   0.164E+02 0.285E+02 0.336E+03   -.168E+02 -.298E+02 -.336E+03   0.314E+00 0.108E+01 -.325E+00   0.349E-01 0.577E-01 0.353E-01
   0.168E+02 -.285E+02 0.337E+03   -.176E+02 0.295E+02 -.336E+03   0.681E+00 -.817E+00 -.428E+00   0.142E-01 -.544E-01 0.192E-02
   0.165E+02 -.285E+02 0.336E+03   -.174E+02 0.295E+02 -.336E+03   0.776E+00 -.811E+00 -.325E+00   0.372E-01 -.629E-01 0.353E-01
   0.165E+02 -.285E+02 0.337E+03   -.174E+02 0.295E+02 -.336E+03   0.750E+00 -.810E+00 -.421E+00   0.454E-01 -.563E-01 0.210E-01
   -.329E+02 -.677E-01 0.336E+03   0.342E+02 0.318E+00 -.336E+03   -.109E+01 -.267E+00 -.325E+00   -.665E-01 -.463E-02 0.352E-01
   -.329E+02 -.386E-01 0.337E+03   0.342E+02 0.286E+00 -.336E+03   -.108E+01 -.244E+00 -.421E+00   -.730E-01 -.103E-01 0.210E-01
   -.331E+02 -.301E+00 0.337E+03   0.343E+02 0.481E+00 -.336E+03   -.105E+01 -.181E+00 -.428E+00   -.594E-01 0.179E-01 0.192E-02
   0.329E+02 0.386E-01 -.337E+03   -.342E+02 -.286E+00 0.336E+03   0.108E+01 0.244E+00 0.421E+00   0.730E-01 0.103E-01 -.210E-01
   0.329E+02 0.677E-01 -.336E+03   -.342E+02 -.318E+00 0.336E+03   0.109E+01 0.267E+00 0.325E+00   0.665E-01 0.463E-02 -.352E-01
   0.331E+02 0.301E+00 -.337E+03   -.343E+02 -.481E+00 0.336E+03   0.105E+01 0.181E+00 0.428E+00   0.594E-01 -.179E-01 -.192E-02
   -.165E+02 0.285E+02 -.336E+03   0.174E+02 -.295E+02 0.336E+03   -.776E+00 0.811E+00 0.325E+00   -.372E-01 0.629E-01 -.353E-01
   -.168E+02 0.285E+02 -.337E+03   0.176E+02 -.295E+02 0.336E+03   -.681E+00 0.817E+00 0.428E+00   -.142E-01 0.544E-01 -.192E-02
   -.165E+02 0.285E+02 -.337E+03   0.174E+02 -.295E+02 0.336E+03   -.750E+00 0.810E+00 0.421E+00   -.454E-01 0.563E-01 -.210E-01
   -.163E+02 -.288E+02 -.337E+03   0.168E+02 0.300E+02 0.336E+03   -.367E+00 -.998E+00 0.428E+00   -.397E-01 -.460E-01 -.246E-02
   -.164E+02 -.285E+02 -.337E+03   0.169E+02 0.298E+02 0.336E+03   -.326E+00 -.105E+01 0.421E+00   -.274E-01 -.670E-01 -.204E-01
   -.164E+02 -.285E+02 -.336E+03   0.168E+02 0.298E+02 0.336E+03   -.314E+00 -.108E+01 0.325E+00   -.349E-01 -.577E-01 -.353E-01
   0.109E+02 -.313E+02 -.100E+04   -.109E+02 0.352E+02 0.100E+04   0.144E+00 -.373E+01 0.101E+01   0.302E-01 -.573E-01 -.549E-02
   0.118E+02 -.320E+02 -.100E+04   -.115E+02 0.357E+02 0.100E+04   -.139E+00 -.347E+01 0.628E+00   -.100E-01 0.243E-01 0.247E-02
   0.106E+02 -.311E+02 -.101E+04   -.107E+02 0.351E+02 0.100E+04   0.161E+00 -.363E+01 0.116E+01   0.788E-01 -.130E+00 0.112E+00
   -.326E+02 0.619E+01 -.100E+04   0.359E+02 -.817E+01 0.100E+04   -.330E+01 0.174E+01 0.101E+01   -.597E-01 -.243E-03 -.570E-02
   -.336E+02 0.582E+01 -.100E+04   0.366E+02 -.784E+01 0.100E+04   -.293E+01 0.185E+01 0.628E+00   0.257E-01 -.287E-02 0.307E-02
   -.323E+02 0.637E+01 -.101E+04   0.357E+02 -.830E+01 0.100E+04   -.322E+01 0.168E+01 0.116E+01   -.152E+00 -.391E-02 0.111E+00
   0.217E+02 0.248E+02 -.101E+04   -.250E+02 -.268E+02 0.100E+04   0.306E+01 0.195E+01 0.116E+01   0.735E-01 0.133E+00 0.111E+00
   0.217E+02 0.251E+02 -.100E+04   -.250E+02 -.270E+02 0.100E+04   0.315E+01 0.199E+01 0.101E+01   0.343E-01 0.491E-01 -.572E-02
   0.218E+02 0.262E+02 -.100E+04   -.251E+02 -.278E+02 0.100E+04   0.307E+01 0.161E+01 0.628E+00   -.164E-01 -.202E-01 0.305E-02
   0.505E+01 0.347E+00 -.169E+04   0.420E+01 0.763E+01 0.170E+04   -.933E+01 -.799E+01 -.113E+02   0.706E-01 0.282E-01 0.578E-01
   0.570E+01 -.631E+01 -.168E+04   0.311E+01 0.135E+02 0.169E+04   -.879E+01 -.730E+01 -.945E+01   -.117E-01 0.596E-01 0.281E+00
   -.927E+01 0.187E+02 -.169E+04   0.193E+02 -.112E+02 0.170E+04   -.100E+02 -.754E+01 -.105E+02   0.312E-01 0.201E-01 0.173E+00
   -.116E+02 -.174E+02 -.169E+04   0.374E-01 0.223E+02 0.170E+04   0.115E+02 -.493E+01 -.105E+02   -.328E-01 0.170E-01 0.173E+00
   -.283E+01 0.420E+01 -.169E+04   -.871E+01 -.176E+00 0.170E+04   0.116E+02 -.408E+01 -.113E+02   -.599E-01 0.472E-01 0.574E-01
   0.262E+01 0.810E+01 -.168E+04   -.133E+02 -.408E+01 0.169E+04   0.107E+02 -.396E+01 -.945E+01   -.458E-01 -.401E-01 0.281E+00
   -.832E+01 -.178E+01 -.168E+04   0.102E+02 -.947E+01 0.169E+04   -.193E+01 0.113E+02 -.945E+01   0.576E-01 -.198E-01 0.281E+00
   0.208E+02 -.133E+01 -.169E+04   -.193E+02 -.111E+02 0.170E+04   -.151E+01 0.125E+02 -.105E+02   0.163E-02 -.373E-01 0.173E+00
   -.223E+01 -.455E+01 -.169E+04   0.451E+01 -.746E+01 0.170E+04   -.226E+01 0.121E+02 -.113E+02   -.110E-01 -.749E-01 0.574E-01
   0.953E-05 0.459E-05 -.523E+04   -.166E-10 0.166E-09 0.524E+04   0.278E-16 -.208E-16 0.175E+01   0.469E-03 -.812E-03 -.270E+01
   0.145E+02 -.252E+02 -.525E+04   -.174E+02 0.248E+02 0.525E+04   0.268E+01 0.594E+00 0.291E+01   0.953E-01 -.294E+00 -.241E+01
   0.145E+02 0.252E+02 -.525E+04   -.128E+02 -.275E+02 0.525E+04   -.185E+01 0.202E+01 0.291E+01   0.207E+00 0.225E+00 -.241E+01
   -.291E+02 0.960E-04 -.525E+04   0.302E+02 0.266E+01 0.525E+04   -.825E+00 -.262E+01 0.291E+01   -.302E+00 0.671E-01 -.241E+01
   -.251E+02 -.762E+01 -.591E+04   0.263E+02 0.895E+01 0.592E+04   -.370E+00 -.174E+01 -.885E+01   -.823E+00 0.438E+00 -.930E+00
   0.191E+02 -.179E+02 -.591E+04   -.209E+02 0.183E+02 0.592E+04   0.169E+01 0.549E+00 -.885E+01   0.335E-01 -.898E+00 -.930E+00
   0.195E-05 0.991E-06 -.615E+04   0.274E-11 0.526E-11 0.616E+04   0.139E-16 0.000E+00 -.103E+02   0.105E-01 -.182E-01 -.101E+01
   0.593E+01 0.255E+02 -.591E+04   -.540E+01 -.273E+02 0.592E+04   -.132E+01 0.119E+01 -.885E+01   0.759E+00 0.511E+00 -.930E+00
   -.953E-05 -.459E-05 0.523E+04   -.398E-10 0.191E-09 -.524E+04   -.278E-16 0.208E-16 -.175E+01   -.469E-03 0.812E-03 0.270E+01
   -.145E+02 0.252E+02 0.525E+04   0.174E+02 -.248E+02 -.525E+04   -.268E+01 -.594E+00 -.291E+01   -.953E-01 0.294E+00 0.241E+01
   -.145E+02 -.252E+02 0.525E+04   0.128E+02 0.275E+02 -.525E+04   0.185E+01 -.202E+01 -.291E+01   -.207E+00 -.225E+00 0.241E+01
   0.291E+02 -.960E-04 0.525E+04   -.302E+02 -.266E+01 -.525E+04   0.825E+00 0.262E+01 -.291E+01   0.302E+00 -.671E-01 0.241E+01
   0.251E+02 0.762E+01 0.591E+04   -.263E+02 -.895E+01 -.592E+04   0.370E+00 0.174E+01 0.885E+01   0.823E+00 -.438E+00 0.930E+00
   -.191E+02 0.179E+02 0.591E+04   0.209E+02 -.183E+02 -.592E+04   -.169E+01 -.549E+00 0.885E+01   -.335E-01 0.898E+00 0.930E+00
   -.195E-05 -.991E-06 0.615E+04   0.269E-10 0.434E-10 -.616E+04   -.139E-16 0.139E-16 0.103E+02   -.105E-01 0.182E-01 0.101E+01
   -.593E+01 -.255E+02 0.591E+04   0.540E+01 0.273E+02 -.592E+04   0.132E+01 -.119E+01 0.885E+01   -.759E+00 -.511E+00 0.930E+00
 -----------------------------------------------------------------------------------------------
   0.644E-09 0.389E-09 -.127E-07   0.225E-12 0.000E+00 -.728E-11   -.178E-14 -.444E-15 0.178E-14   0.264E-08 0.148E-08 0.368E-10
 
 
 POSITION                                       TOTAL-FORCE (eV/Angst)
 -----------------------------------------------------------------------------------
      0.02904      2.72212     13.90289         0.040813     -0.088739      0.007102
      4.72609      2.76214     13.90289         0.056444      0.079715      0.007102
      2.34291      6.80990     13.90289        -0.097257      0.009024      0.007102
      0.00000      0.00000     15.19717        -0.000000      0.000000     -0.147769
      4.73202      0.00000     15.19717        -0.000000      0.000000     -0.270238
      2.36601      4.09805     15.19717        -0.000000      0.000000     -0.130370
      2.36601      1.36602     15.46303        -0.060664      0.062172     -0.053654
      0.00000      5.46407     15.46303         0.084174      0.021451     -0.053654
      4.73202     -2.73204     15.46303        -0.023510     -0.083623     -0.053654
      0.00000      2.73204     17.34206         0.073068      0.027701     -0.437257
      4.73202      2.73204     17.34206        -0.060523      0.049428     -0.437257
      2.36601     -1.36602     17.34206        -0.012544     -0.077129     -0.437257
      0.00000      0.00000     17.78589        -0.000000      0.000000      0.007919
      4.73202      0.00000     17.78589        -0.000000      0.000000      0.080448
      2.36601      4.09805     17.78589        -0.000000      0.000000     -0.045771
      2.36601      1.36602     19.45363        -0.002149      0.002647     -0.081891
      0.00000      5.46407     19.45363         0.003367      0.000538     -0.081891
      4.73202     -2.73204     19.45363        -0.001218     -0.003185     -0.081891
      0.00000      2.73204     19.96447        -0.003367     -0.000538      0.081891
      4.73202      2.73204     19.96447         0.002149     -0.002647      0.081891
      2.36601     -1.36602     19.96447         0.001218      0.003185      0.081891
      0.00000      0.00000     21.63221        -0.000000      0.000000     -0.007919
      4.73202      0.00000     21.63221        -0.000000      0.000000      0.045771
      2.36601      4.09805     21.63221        -0.000000      0.000000     -0.080448
      2.36601      1.36602     22.07604         0.060523     -0.049428      0.437257
      0.00000      5.46407     22.07604        -0.073068     -0.027701      0.437257
      4.73202     -2.73204     22.07604         0.012544      0.077129      0.437257
      0.00000      2.73204     23.95507        -0.084174     -0.021451      0.053654
      4.73202      2.73204     23.95507         0.060664     -0.062172      0.053654
      2.36601     -1.36602     23.95507         0.023510      0.083623      0.053654
      0.00000      0.00000     24.22093        -0.000000      0.000000      0.147769
      4.73202      0.00000     24.22093        -0.000000      0.000000      0.130370
      2.36601      4.09805     24.22093        -0.000000      0.000000      0.270238
      2.37194      1.33591     25.51521        -0.056444     -0.079715     -0.007102
      7.06900      1.37593     25.51521        -0.040813      0.088739     -0.007102
      4.75513     -2.71185     25.51521         0.097257     -0.009024     -0.007102
      1.56153      0.09535     14.25962        -0.011879      0.017038      0.013666
      6.29978      0.08491     14.27347         0.017173      0.006278     -0.064910
      3.92770      4.21857     14.28801        -0.016001      0.009760      0.023064
      1.68954      2.68534     14.28801         0.016453      0.008977      0.023064
      6.39985      2.69805     14.25962         0.020695      0.001769      0.013666
      4.02168     -1.40017     14.27347        -0.003150     -0.018011     -0.064910
      3.87461      1.31526     14.27347        -0.014023      0.011733     -0.064910
      1.48080      5.39025     14.28801        -0.000452     -0.018737      0.023064
      6.23469     -2.79341     14.25962        -0.008815     -0.018806      0.013666
      5.46895     -1.27407     16.46399        -0.210249     -0.148728     -0.351336
      3.10294      2.82398     16.46399        -0.089766     -0.188019     -0.137670
      0.73693      6.92203     16.46399        -0.211049     -0.106769     -0.272031
      0.73491      1.27523     16.46399         0.197989     -0.129389     -0.272031
      5.46694      1.27523     16.46399         0.233927     -0.107717     -0.351336
      3.10093      5.37329     16.46399         0.207712      0.016270     -0.137670
      3.26018     -0.00116     16.46399        -0.023678      0.256445     -0.351336
      0.89417      4.09689     16.46399        -0.117946      0.171749     -0.137670
      5.62619      4.09689     16.46399         0.013059      0.236158     -0.272031
      6.37930     -2.62306     18.63401        -0.087241     -0.136104     -0.011239
      4.01328      1.47499     18.63401        -0.073678     -0.154064     -0.014905
      1.64727      5.57304     18.63401        -0.093389     -0.127206      0.019031
      6.36877     -0.11505     18.63401        -0.096584      0.140839     -0.014905
      4.00276      3.98300     18.63401        -0.063469      0.144480      0.019031
      1.63675     -0.11505     18.63401        -0.074249      0.143605     -0.011239
      1.44800      2.73811     18.63401         0.156858     -0.017275      0.019031
      6.18003      2.73811     18.63401         0.161491     -0.007501     -0.011239
      3.81401     -1.35994     18.63401         0.170262      0.013225     -0.014905
      0.91801      1.35994     20.78409        -0.161491      0.007501      0.011239
      5.65003      1.35994     20.78409        -0.156858      0.017275     -0.019031
      3.28402      5.45800     20.78409        -0.170262     -0.013225      0.014905
      3.09527      0.11505     20.78409         0.063469     -0.144480     -0.019031
      0.72926      4.21310     20.78409         0.096584     -0.140839      0.014905
      5.46129      4.21310     20.78409         0.074249     -0.143605      0.011239
      3.08475      2.62306     20.78409         0.073678      0.154064      0.014905
      0.71874      6.72111     20.78409         0.087241      0.136104      0.011239
      5.45076     -1.47499     20.78409         0.093389      0.127206     -0.019031
      6.36111     -2.82398     22.95412         0.211049      0.106769      0.272031
      3.99509      1.27407     22.95412         0.089766      0.188019      0.137670
      1.62908      5.37212     22.95412         0.210249      0.148728      0.351336
      1.47184      0.00116     22.95412        -0.013059     -0.236158      0.272031
      6.20387      0.00116     22.95412         0.117946     -0.171749      0.137670
      3.83785      4.09922     22.95412         0.023678     -0.256445      0.351336
      1.63110      2.82282     22.95412        -0.233927      0.107717      0.351336
      6.36312      2.82282     22.95412        -0.197989      0.129389      0.272031
      3.99711     -1.27523     22.95412        -0.207712     -0.016270      0.137670
      5.61724     -1.29220     25.13009         0.000452      0.018737     -0.023064
      3.22343      2.78279     25.14463         0.014023     -0.011733      0.064910
      0.86334      6.89146     25.15848         0.008815      0.018806     -0.013666
      0.69818      1.40000     25.15848        -0.020695     -0.001769     -0.013666
      5.40850      1.41272     25.13009        -0.016453     -0.008977     -0.023064
      3.07635      5.49823     25.14463         0.003150      0.018011      0.064910
      0.79825      4.01314     25.14463        -0.017173     -0.006278      0.064910
      5.53651      4.00270     25.15848         0.011879     -0.017038     -0.013666
      3.17034     -0.12052     25.13009         0.016001     -0.009760     -0.023064
      0.00000      0.00000     27.86916        -0.000000      0.000000      0.058269
      3.38637      6.12349     27.95171        -0.114768     -0.022689      0.069587
      0.10176      3.96899     27.95171         0.077034     -0.088047      0.069587
      3.60991      2.20168     27.95171         0.037734      0.110737      0.069587
      2.38026      0.12475     28.58406         0.071930      0.010845     -0.003961
      5.79987     -2.09906     28.58406        -0.045357      0.056871     -0.003961
      2.36601      4.09805     28.97854        -0.000000      0.000000     -0.040822
      6.01594      1.97431     28.58406        -0.026573     -0.067716     -0.003961
      0.00000      0.00000     11.54894        -0.000000      0.000000     -0.058269
      3.71167     -2.02544     11.46640         0.114768      0.022689     -0.069587
      6.99628      0.12907     11.46640        -0.077034      0.088047     -0.069587
      3.48812      1.89637     11.46640        -0.037734     -0.110737     -0.069587
      4.71778      3.97331     10.83404        -0.071930     -0.010845      0.003961
      1.29816      6.19711     10.83404         0.045357     -0.056871      0.003961
      4.73202     -0.00000     10.43956        -0.000000      0.000000      0.040822
      1.08210      2.12374     10.83404         0.026573      0.067716      0.003961
 -----------------------------------------------------------------------------------
    total drift:                                0.000000      0.000000     -0.000000


--------------------------------------------------------------------------------------------------------



  FREE ENERGIE OF THE ION-ELECTRON SYSTEM (eV)
  ---------------------------------------------------
  free  energy   TOTEN  =      -736.07555218 eV

  energy  without entropy=     -736.08020087  energy(sigma->0) =     -736.07710175
 


--------------------------------------------------------------------------------------------------------


    POTLOK:  cpu time   52.5660: real time  105.2204


--------------------------------------------------------------------------------------------------------


 stress matrix after NEB project (eV)
      9.53449     -0.00000     -0.00000
      0.00000      9.53449     -0.00000
      0.00000     -0.00000    -28.76548
  FORCES: max atom, RMS     0.136121    0.048270
  FORCE total and by dimension    0.496970    0.114768
  Stress total and by dimension   31.768941   28.765478
 writing wavefunctions
     LOOP+:  cpu time 1878.2669: real time 3763.0450
    4ORBIT:  cpu time    0.0000: real time    0.0000

 total amount of memory used by VASP MPI-rank0  3715563. kBytes
=======================================================================

   base      :      30000. kBytes
   nonlr-proj:      46657. kBytes
   fftplans  :      56155. kBytes
   grid      :     132596. kBytes
   one-center:       1648. kBytes
   wavefun   :    3448507. kBytes
 
  
  
 General timing and accounting informations for this job:
 ========================================================
  
                  Total CPU time used (sec):     1951.143
                            User time (sec):     1730.661
                          System time (sec):      220.482
                         Elapsed time (sec):     3913.031
  
                   Maximum memory used (kb):     7274040.
                   Average memory used (kb):           0.
  
                          Minor page faults:     10842072
                          Major page faults:            0
                 Voluntary context switches:        73243
