  51  51   0   0
  0.5138078E+02  0.1230000E-08  0.1230000E-08  0.2000000E-08  0.5000000E-15
  1.000000000000000E-004
  CAR 
                                         
      5.96916171    -33.53641917  301     -3.01738756      1.00000000
    -33.536  0.0000E+00  0.0000E+00
    -33.405  0.0000E+00  0.0000E+00
    -33.273  0.0000E+00  0.0000E+00
    -33.141  0.0000E+00  0.0000E+00
    -33.010  0.0000E+00  0.0000E+00
    -32.878  0.0000E+00  0.0000E+00
    -32.746  0.0000E+00  0.0000E+00
    -32.615  0.0000E+00  0.0000E+00
    -32.483  0.0000E+00  0.0000E+00
    -32.351  0.0000E+00  0.0000E+00
    -32.220  0.0000E+00  0.0000E+00
    -32.088  0.0000E+00  0.0000E+00
    -31.956  0.8251E-08  0.1087E-08
    -31.825  0.1345E+00  0.1771E-01
    -31.693  0.1372E+02  0.1824E+01
    -31.561  0.1337E+01  0.2000E+01
    -31.429  0.2901E-05  0.2000E+01
    -31.298  0.0000E+00  0.2000E+01
    -31.166  0.0000E+00  0.2000E+01
    -31.034  0.0000E+00  0.2000E+01
    -30.903  0.0000E+00  0.2000E+01
    -30.771  0.0000E+00  0.2000E+01
    -30.639  0.0000E+00  0.2000E+01
    -30.508  0.0000E+00  0.2000E+01
    -30.376  0.0000E+00  0.2000E+01
    -30.244  0.0000E+00  0.2000E+01
    -30.113  0.0000E+00  0.2000E+01
    -29.981  0.0000E+00  0.2000E+01
    -29.849  0.0000E+00  0.2000E+01
    -29.718  0.0000E+00  0.2000E+01
    -29.586  0.0000E+00  0.2000E+01
    -29.454  0.0000E+00  0.2000E+01
    -29.322  0.0000E+00  0.2000E+01
    -29.191  0.0000E+00  0.2000E+01
    -29.059  0.0000E+00  0.2000E+01
    -28.927  0.0000E+00  0.2000E+01
    -28.796  0.0000E+00  0.2000E+01
    -28.664  0.0000E+00  0.2000E+01
    -28.532  0.0000E+00  0.2000E+01
    -28.401  0.0000E+00  0.2000E+01
    -28.269  0.0000E+00  0.2000E+01
    -28.137  0.0000E+00  0.2000E+01
    -28.006  0.0000E+00  0.2000E+01
    -27.874  0.0000E+00  0.2000E+01
    -27.742  0.0000E+00  0.2000E+01
    -27.611  0.0000E+00  0.2000E+01
    -27.479  0.0000E+00  0.2000E+01
    -27.347  0.0000E+00  0.2000E+01
    -27.216  0.0000E+00  0.2000E+01
    -27.084  0.0000E+00  0.2000E+01
    -26.952  0.0000E+00  0.2000E+01
    -26.820  0.0000E+00  0.2000E+01
    -26.689  0.0000E+00  0.2000E+01
    -26.557  0.0000E+00  0.2000E+01
    -26.425  0.0000E+00  0.2000E+01
    -26.294  0.0000E+00  0.2000E+01
    -26.162  0.0000E+00  0.2000E+01
    -26.030  0.0000E+00  0.2000E+01
    -25.899  0.0000E+00  0.2000E+01
    -25.767  0.0000E+00  0.2000E+01
    -25.635  0.0000E+00  0.2000E+01
    -25.504  0.0000E+00  0.2000E+01
    -25.372  0.0000E+00  0.2000E+01
    -25.240  0.0000E+00  0.2000E+01
    -25.109  0.0000E+00  0.2000E+01
    -24.977  0.0000E+00  0.2000E+01
    -24.845  0.0000E+00  0.2000E+01
    -24.714  0.0000E+00  0.2000E+01
    -24.582  0.0000E+00  0.2000E+01
    -24.450  0.0000E+00  0.2000E+01
    -24.318  0.0000E+00  0.2000E+01
    -24.187  0.0000E+00  0.2000E+01
    -24.055  0.0000E+00  0.2000E+01
    -23.923  0.0000E+00  0.2000E+01
    -23.792  0.0000E+00  0.2000E+01
    -23.660  0.0000E+00  0.2000E+01
    -23.528  0.0000E+00  0.2000E+01
    -23.397  0.0000E+00  0.2000E+01
    -23.265  0.0000E+00  0.2000E+01
    -23.133  0.0000E+00  0.2000E+01
    -23.002  0.0000E+00  0.2000E+01
    -22.870  0.0000E+00  0.2000E+01
    -22.738  0.0000E+00  0.2000E+01
    -22.607  0.0000E+00  0.2000E+01
    -22.475  0.7140E-08  0.2000E+01
    -22.343  0.3543E-01  0.2005E+01
    -22.211  0.4249E+01  0.2564E+01
    -22.080  0.9309E+01  0.3790E+01
    -21.948  0.4948E+01  0.4442E+01
    -21.816  0.1062E+02  0.5840E+01
    -21.685  0.5486E+01  0.6563E+01
    -21.553  0.7825E+01  0.7593E+01
    -21.421  0.1256E+02  0.9247E+01
    -21.290  0.5708E+01  0.9999E+01
    -21.158  0.3637E+01  0.1048E+02
    -21.026  0.9155E+01  0.1168E+02
    -20.895  0.1070E+02  0.1309E+02
    -20.763  0.1018E+02  0.1443E+02
    -20.631  0.8489E+01  0.1555E+02
    -20.500  0.1838E+00  0.1558E+02
    -20.368  0.1302E+02  0.1729E+02
    -20.236  0.4048E+01  0.1782E+02
    -20.105  0.1852E+02  0.2026E+02
    -19.973  0.1406E+01  0.2045E+02
    -19.841  0.3478E+01  0.2090E+02
    -19.709  0.1379E+02  0.2272E+02
    -19.578  0.8572E+01  0.2385E+02
    -19.446  0.6198E+01  0.2467E+02
    -19.314  0.6655E+01  0.2554E+02
    -19.183  0.1417E+02  0.2741E+02
    -19.051  0.7406E+01  0.2838E+02
    -18.919  0.4878E+01  0.2903E+02
    -18.788  0.5252E+01  0.2972E+02
    -18.656  0.5040E+01  0.3038E+02
    -18.524  0.1403E+02  0.3223E+02
    -18.393  0.1128E+02  0.3371E+02
    -18.261  0.8843E+01  0.3488E+02
    -18.129  0.4582E+01  0.3548E+02
    -17.998  0.1552E+02  0.3753E+02
    -17.866  0.4784E+01  0.3816E+02
    -17.734  0.3785E+01  0.3865E+02
    -17.603  0.5554E+01  0.3939E+02
    -17.471  0.1593E+02  0.4148E+02
    -17.339  0.4098E+01  0.4202E+02
    -17.207  0.2150E+02  0.4485E+02
    -17.076  0.6842E+01  0.4575E+02
    -16.944  0.3548E+01  0.4622E+02
    -16.812  0.8779E+01  0.4738E+02
    -16.681  0.4051E+01  0.4791E+02
    -16.549  0.8944E+01  0.4909E+02
    -16.417  0.8858E+01  0.5026E+02
    -16.286  0.3091E+01  0.5066E+02
    -16.154  0.9185E+01  0.5187E+02
    -16.022  0.5849E+01  0.5264E+02
    -15.891  0.1311E+02  0.5437E+02
    -15.759  0.1206E+02  0.5596E+02
    -15.627  0.2089E+01  0.5623E+02
    -15.496  0.4181E+01  0.5678E+02
    -15.364  0.2823E+01  0.5715E+02
    -15.232  0.1011E+02  0.5849E+02
    -15.100  0.2195E+02  0.6138E+02
    -14.969  0.4866E+01  0.6202E+02
    -14.837  0.1140E+02  0.6352E+02
    -14.705  0.1054E+02  0.6491E+02
    -14.574  0.6423E+01  0.6575E+02
    -14.442  0.1542E+02  0.6778E+02
    -14.310  0.5028E+01  0.6844E+02
    -14.179  0.9709E+00  0.6857E+02
    -14.047  0.4127E+01  0.6912E+02
    -13.915  0.9798E+01  0.7041E+02
    -13.784  0.1654E+02  0.7258E+02
    -13.652  0.1830E+02  0.7499E+02
    -13.520  0.1695E+01  0.7522E+02
    -13.389  0.2565E+01  0.7555E+02
    -13.257  0.4429E+00  0.7561E+02
    -13.125  0.1108E+02  0.7707E+02
    -12.994  0.1387E+02  0.7890E+02
    -12.862  0.2052E+02  0.8160E+02
    -12.730  0.1345E+01  0.8178E+02
    -12.598  0.4479E+01  0.8237E+02
    -12.467  0.1782E+02  0.8471E+02
    -12.335  0.1089E+02  0.8615E+02
    -12.203  0.3684E+01  0.8663E+02
    -12.072  0.2979E+01  0.8703E+02
    -11.940  0.1236E+02  0.8865E+02
    -11.808  0.3442E+01  0.8911E+02
    -11.677  0.1578E+02  0.9118E+02
    -11.545  0.1794E+02  0.9355E+02
    -11.413  0.1357E+02  0.9533E+02
    -11.282  0.8382E+01  0.9644E+02
    -11.150  0.5595E+01  0.9718E+02
    -11.018  0.7970E+01  0.9822E+02
    -10.887  0.1260E+02  0.9988E+02
    -10.755  0.1730E+02  0.1022E+03
    -10.623  0.1921E+01  0.1024E+03
    -10.491  0.2052E+02  0.1051E+03
    -10.360  0.3966E+01  0.1056E+03
    -10.228  0.2406E+02  0.1088E+03
    -10.096  0.2571E+02  0.1122E+03
     -9.965  0.1865E+02  0.1146E+03
     -9.833  0.1444E+02  0.1166E+03
     -9.701  0.1758E+02  0.1189E+03
     -9.570  0.2727E+02  0.1225E+03
     -9.438  0.2121E+02  0.1252E+03
     -9.306  0.2707E+02  0.1288E+03
     -9.175  0.2364E+02  0.1319E+03
     -9.043  0.2856E+02  0.1357E+03
     -8.911  0.2018E+02  0.1383E+03
     -8.780  0.1787E+02  0.1407E+03
     -8.648  0.2287E+02  0.1437E+03
     -8.516  0.1772E+02  0.1460E+03
     -8.385  0.1641E+02  0.1482E+03
     -8.253  0.1538E+02  0.1502E+03
     -8.121  0.1571E+02  0.1523E+03
     -7.989  0.2885E+02  0.1561E+03
     -7.858  0.1614E+02  0.1582E+03
     -7.726  0.1673E+02  0.1604E+03
     -7.594  0.7948E+01  0.1615E+03
     -7.463  0.2342E+01  0.1618E+03
     -7.331  0.1692E+02  0.1640E+03
     -7.199  0.3257E+02  0.1683E+03
     -7.068  0.1611E+02  0.1704E+03
     -6.936  0.4170E+01  0.1710E+03
     -6.804  0.1949E+02  0.1735E+03
     -6.673  0.1245E+02  0.1752E+03
     -6.541  0.1617E+02  0.1773E+03
     -6.409  0.7141E+01  0.1782E+03
     -6.278  0.1238E+02  0.1799E+03
     -6.146  0.1536E+02  0.1819E+03
     -6.014  0.1386E+02  0.1837E+03
     -5.883  0.1987E+02  0.1863E+03
     -5.751  0.7935E+01  0.1874E+03
     -5.619  0.1374E+02  0.1892E+03
     -5.487  0.3420E+01  0.1896E+03
     -5.356  0.7745E+01  0.1907E+03
     -5.224  0.8803E+01  0.1918E+03
     -5.092  0.1159E+02  0.1933E+03
     -4.961  0.1796E+02  0.1957E+03
     -4.829  0.1573E+02  0.1978E+03
     -4.697  0.3205E+01  0.1982E+03
     -4.566  0.1002E+00  0.1982E+03
     -4.434  0.2497E-04  0.1982E+03
     -4.302  0.2674E+01  0.1986E+03
     -4.171  0.1735E+02  0.2009E+03
     -4.039  0.5283E+01  0.2016E+03
     -3.907  0.1184E-02  0.2016E+03
     -3.776  0.3824E+00  0.2016E+03
     -3.644  0.2973E+01  0.2020E+03
     -3.512  0.2384E+00  0.2020E+03
     -3.380  0.4211E+01  0.2026E+03
     -3.249  0.1232E+02  0.2042E+03
     -3.117  0.1071E+02  0.2056E+03
     -2.985  0.2961E+01  0.2060E+03
     -2.854  0.2393E+01  0.2063E+03
     -2.722  0.9274E+01  0.2075E+03
     -2.590  0.1025E+00  0.2076E+03
     -2.459  0.7392E-01  0.2076E+03
     -2.327  0.3160E+01  0.2080E+03
     -2.195  0.2822E+01  0.2084E+03
     -2.064  0.6947E+00  0.2084E+03
     -1.932  0.9247E-05  0.2084E+03
     -1.800  0.1777E-07  0.2084E+03
     -1.669  0.1477E+00  0.2085E+03
     -1.537  0.9432E+01  0.2097E+03
     -1.405  0.1237E+02  0.2113E+03
     -1.274  0.3361E+01  0.2118E+03
     -1.142  0.1434E-03  0.2118E+03
     -1.010  0.1043E+01  0.2119E+03
     -0.878  0.1045E+02  0.2133E+03
     -0.747  0.2341E+02  0.2164E+03
     -0.615  0.1845E+02  0.2188E+03
     -0.483  0.5427E+01  0.2195E+03
     -0.352  0.2999E+00  0.2196E+03
     -0.220  0.4403E+01  0.2201E+03
     -0.088  0.1127E+02  0.2216E+03
      0.043  0.1049E+02  0.2230E+03
      0.175  0.9236E+00  0.2231E+03
      0.307  0.1582E+02  0.2252E+03
      0.438  0.7849E+01  0.2262E+03
      0.570  0.3226E+01  0.2267E+03
      0.702  0.1053E+02  0.2281E+03
      0.833  0.1735E+02  0.2303E+03
      0.965  0.6146E+01  0.2311E+03
      1.097  0.1076E+02  0.2326E+03
      1.228  0.1535E+02  0.2346E+03
      1.360  0.8032E+01  0.2356E+03
      1.492  0.1498E+02  0.2376E+03
      1.624  0.2307E+02  0.2407E+03
      1.755  0.1637E+02  0.2428E+03
      1.887  0.2679E+02  0.2463E+03
      2.019  0.8368E+01  0.2474E+03
      2.150  0.1654E+02  0.2496E+03
      2.282  0.2568E+02  0.2530E+03
      2.414  0.2859E+02  0.2568E+03
      2.545  0.7793E+01  0.2578E+03
      2.677  0.6409E+01  0.2586E+03
      2.809  0.9663E+01  0.2599E+03
      2.940  0.4321E+01  0.2605E+03
      3.072  0.9151E+01  0.2617E+03
      3.204  0.2706E+01  0.2620E+03
      3.335  0.4733E+01  0.2627E+03
      3.467  0.3801E-01  0.2627E+03
      3.599  0.2437E+01  0.2630E+03
      3.731  0.4306E+01  0.2636E+03
      3.862  0.6889E-02  0.2636E+03
      3.994  0.6403E-06  0.2636E+03
      4.126  0.2963E+00  0.2636E+03
      4.257  0.3049E+01  0.2640E+03
      4.389  0.3000E-01  0.2640E+03
      4.521  0.1849E-08  0.2640E+03
      4.652  0.0000E+00  0.2640E+03
      4.784  0.0000E+00  0.2640E+03
      4.916  0.0000E+00  0.2640E+03
      5.047  0.0000E+00  0.2640E+03
      5.179  0.0000E+00  0.2640E+03
      5.311  0.0000E+00  0.2640E+03
      5.442  0.0000E+00  0.2640E+03
      5.574  0.0000E+00  0.2640E+03
      5.706  0.0000E+00  0.2640E+03
      5.837  0.0000E+00  0.2640E+03
      5.969  0.0000E+00  0.2640E+03
