 vasp.5.4.4.18Apr17-6-g9f103f2a35 (build Aug 13 2022 23:40:43) complex          
  
 executed on             LinuxIFC date 2024.11.10  04:10:23
 running on   48 total cores
 distrk:  each k-point on   48 cores,    1 groups
 distr:  one band on NCORES_PER_BAND=   8 cores,    6 groups


--------------------------------------------------------------------------------------------------------


 INCAR:
 POTCAR:    PAW_PBE C 08Apr2002                   
 POTCAR:    PAW_PBE O 08Apr2002                   
 POTCAR:    PAW_PBE C 08Apr2002                   
   VRHFIN =C: s2p2                                                              
   LEXCH  = PE                                                                  
   EATOM  =   147.1560 eV,   10.8157 Ry                                         
                                                                                
   TITEL  = PAW_PBE C 08Apr2002                                                 
   LULTRA =        F    use ultrasoft PP ?                                      
   IUNSCR =        1    unscreen: 0-lin 1-nonlin 2-no                           
   RPACOR =    1.200    partial core radius                                     
   POMASS =   12.011; ZVAL   =    4.000    mass and valenz                      
   RCORE  =    1.500    outmost cutoff radius                                   
   RWIGS  =    1.630; RWIGS  =    0.863    wigner-seitz radius (au A)           
   ENMAX  =  400.000; ENMIN  =  300.000 eV                                      
   ICORE  =        2    local potential                                         
   LCOR   =        T    correct aug charges                                     
   LPAW   =        T    paw PP                                                  
   EAUG   =  644.873                                                            
   DEXC   =    0.000                                                            
   RMAX   =    1.529    core radius for proj-oper                               
   RAUG   =    1.300    factor for augmentation sphere                          
   RDEP   =    1.501    radius for radial grids                                 
   RDEPT  =    1.300    core radius for aug-charge                              
                                                                                
   Atomic configuration                                                         
    4 entries                                                                   
     n  l   j            E        occ.                                          
     1  0  0.50      -273.3789   2.0000                                         
     2  0  0.50       -13.7508   2.0000                                         
     2  1  0.50        -5.2854   2.0000                                         
     3  2  1.50        -5.4423   0.0000                                         
   Description                                                                  
     l       E           TYP  RCUT    TYP  RCUT                                 
     0    -13.7508458     23  1.200                                             
     0     -8.2022199     23  1.200                                             
     1     -5.2854383     23  1.500                                             
     1     34.0145650     23  1.500                                             
     2     -5.4423304      7  1.500                                             
  local pseudopotential read in
  partial core-charges read in
  partial kinetic energy density read in
  atomic valenz-charges read in
  non local Contribution for L=           0  read in
    real space projection operators read in
  non local Contribution for L=           0  read in
    real space projection operators read in
  non local Contribution for L=           1  read in
    real space projection operators read in
  non local Contribution for L=           1  read in
    real space projection operators read in
    PAW grid and wavefunctions read in
 
   number of l-projection  operators is LMAX  =           4
   number of lm-projection operators is LMMAX =           8
 
 POTCAR:    PAW_PBE O 08Apr2002                   
   VRHFIN =O: s2p4                                                              
   LEXCH  = PE                                                                  
   EATOM  =   432.3788 eV,   31.7789 Ry                                         
                                                                                
   TITEL  = PAW_PBE O 08Apr2002                                                 
   LULTRA =        F    use ultrasoft PP ?                                      
   IUNSCR =        1    unscreen: 0-lin 1-nonlin 2-no                           
   RPACOR =    1.200    partial core radius                                     
   POMASS =   16.000; ZVAL   =    6.000    mass and valenz                      
   RCORE  =    1.520    outmost cutoff radius                                   
   RWIGS  =    1.550; RWIGS  =    0.820    wigner-seitz radius (au A)           
   ENMAX  =  400.000; ENMIN  =  300.000 eV                                      
   ICORE  =        2    local potential                                         
   LCOR   =        T    correct aug charges                                     
   LPAW   =        T    paw PP                                                  
   EAUG   =  605.392                                                            
   DEXC   =    0.000                                                            
   RMAX   =    1.553    core radius for proj-oper                               
   RAUG   =    1.300    factor for augmentation sphere                          
   RDEP   =    1.550    radius for radial grids                                 
   RDEPT  =    1.329    core radius for aug-charge                              
                                                                                
   Atomic configuration                                                         
    4 entries                                                                   
     n  l   j            E        occ.                                          
     1  0  0.50      -514.6923   2.0000                                         
     2  0  0.50       -23.9615   2.0000                                         
     2  1  0.50        -9.0305   4.0000                                         
     3  2  1.50        -9.5241   0.0000                                         
   Description                                                                  
     l       E           TYP  RCUT    TYP  RCUT                                 
     0    -23.9615318     23  1.200                                             
     0     -9.5240782     23  1.200                                             
     1     -9.0304911     23  1.520                                             
     1      8.1634956     23  1.520                                             
     2     -9.5240782      7  1.500                                             
  local pseudopotential read in
  partial core-charges read in
  partial kinetic energy density read in
  kinetic energy density of atom read in
  atomic valenz-charges read in
  non local Contribution for L=           0  read in
    real space projection operators read in
  non local Contribution for L=           0  read in
    real space projection operators read in
  non local Contribution for L=           1  read in
    real space projection operators read in
  non local Contribution for L=           1  read in
    real space projection operators read in
    PAW grid and wavefunctions read in
 
   number of l-projection  operators is LMAX  =           4
   number of lm-projection operators is LMMAX =           8
 

 ----------------------------------------------------------------------------- 
|                                                                             |
|  ADVICE TO THIS USER RUNNING 'VASP/VAMP'   (HEAR YOUR MASTER'S VOICE ...):  |
|                                                                             |
|      You have a (more or less) 'large supercell' and for larger cells       |
|      it might be more efficient to use real space projection opertators     |
|      So try LREAL= Auto  in the INCAR   file.                               |
|      Mind:          For very  accurate calculation you might also keep the  |
|      reciprocal projection scheme          (i.e. LREAL=.FALSE.)             |
|                                                                             |
 ----------------------------------------------------------------------------- 

  PAW_PBE C 08Apr2002                   :
 energy of atom  1       EATOM= -147.1560
 kinetic energy error for atom=    0.0288 (will be added to EATOM!!)
  PAW_PBE O 08Apr2002                   :
 energy of atom  2       EATOM= -432.3788
 kinetic energy error for atom=    0.1156 (will be added to EATOM!!)
 
 
 POSCAR: generated by phonopy                    
  positions in direct lattice
  No initial velocities read in
 exchange correlation table for  LEXCH =        8
   RHO(1)=    0.500       N(1)  =     2000
   RHO(2)=  100.500       N(2)  =     4000

 VTST: version 3.2, (02/03/18)

 CHAIN: initializing optimizer
 
 OPT: Using VASP Dynamics algorithm
 CHAIN: Read ICHAIN            0
 
 POSCAR: generated by phonopy                    
  positions in direct lattice
  No initial velocities read in
 


--------------------------------------------------------------------------------------------------------


 ion  position               nearest neighbor table
   1  0.000  0.000  0.418-  26 1.42  30 1.42  46 1.42
   2  0.200  0.000  0.418-  26 1.42  47 1.42  27 1.42
   3  0.400  0.000  0.418-  28 1.42  48 1.42  27 1.42
   4  0.600  0.000  0.418-  29 1.42  28 1.42  49 1.42
   5  0.800  0.000  0.418-  30 1.42  29 1.42  50 1.42
   6  0.000  0.200  0.418-  31 1.42  35 1.42  26 1.42
   7  0.200  0.200  0.418-  32 1.42  31 1.42  27 1.42
   8  0.400  0.200  0.418-  33 1.42  32 1.42  28 1.42
   9  0.600  0.200  0.418-  34 1.42  33 1.42  29 1.42
  10  0.800  0.200  0.418-  35 1.42  34 1.42  30 1.42
  11  0.000  0.400  0.418-  36 1.42  40 1.42  31 1.42
  12  0.200  0.400  0.418-  37 1.42  36 1.42  32 1.42
  13  0.400  0.400  0.418-  51 1.00  38 1.42  37 1.42  33 1.42
  14  0.600  0.400  0.418-  39 1.42  38 1.42  34 1.42
  15  0.800  0.400  0.418-  40 1.42  39 1.42  35 1.42
  16  0.000  0.600  0.418-  41 1.42  45 1.42  36 1.42
  17  0.200  0.600  0.418-  42 1.42  41 1.42  37 1.42
  18  0.400  0.600  0.418-  43 1.42  42 1.42  38 1.42
  19  0.600  0.600  0.418-  44 1.42  43 1.42  39 1.42
  20  0.800  0.600  0.418-  45 1.42  44 1.42  40 1.42
  21  0.000  0.800  0.418-  46 1.42  50 1.42  41 1.42
  22  0.200  0.800  0.418-  47 1.42  46 1.42  42 1.42
  23  0.400  0.800  0.418-  48 1.42  47 1.42  43 1.42
  24  0.600  0.800  0.418-  49 1.42  48 1.42  44 1.42
  25  0.800  0.800  0.418-  50 1.42  49 1.42  45 1.42
  26  0.067  0.067  0.418-   1 1.42   2 1.42   6 1.42
  27  0.267  0.067  0.418-   2 1.42   3 1.42   7 1.42
  28  0.467  0.067  0.418-   3 1.42   4 1.42   8 1.42
  29  0.667  0.067  0.418-   4 1.42   5 1.42   9 1.42
  30  0.867  0.067  0.418-   5 1.42   1 1.42  10 1.42
  31  0.067  0.267  0.418-   6 1.42   7 1.42  11 1.42
  32  0.267  0.267  0.418-   7 1.42   8 1.42  12 1.42
  33  0.467  0.267  0.418-   8 1.42   9 1.42  13 1.42  51 1.74
  34  0.667  0.267  0.418-   9 1.42  10 1.42  14 1.42
  35  0.867  0.267  0.418-  10 1.42   6 1.42  15 1.42
  36  0.067  0.467  0.418-  11 1.42  12 1.42  16 1.42
  37  0.267  0.467  0.418-  12 1.42  13 1.42  17 1.42  51 1.74
  38  0.467  0.467  0.418-  13 1.42  14 1.42  18 1.42  51 1.74
  39  0.667  0.467  0.418-  14 1.42  15 1.42  19 1.42
  40  0.867  0.467  0.418-  15 1.42  11 1.42  20 1.42
  41  0.067  0.667  0.418-  16 1.42  17 1.42  21 1.42
  42  0.267  0.667  0.418-  17 1.42  18 1.42  22 1.42
  43  0.467  0.667  0.418-  18 1.42  19 1.42  23 1.42
  44  0.667  0.667  0.418-  19 1.42  20 1.42  24 1.42
  45  0.867  0.667  0.418-  20 1.42  16 1.42  25 1.42
  46  0.067  0.867  0.418-  21 1.42  22 1.42   1 1.42
  47  0.267  0.867  0.418-  22 1.42  23 1.42   2 1.42
  48  0.467  0.867  0.418-  23 1.42  24 1.42   3 1.42
  49  0.667  0.867  0.418-  24 1.42  25 1.42   4 1.42
  50  0.867  0.867  0.418-  25 1.42  21 1.42   5 1.42
  51  0.400  0.400  0.468-  13 1.00  38 1.74  37 1.74  33 1.74
 
  LATTYP: Found a hexagonal cell.
 ALAT       =    12.2999994816
 C/A-ratio  =     1.6260163287
  
  Lattice vectors:
  
 A1 = (   6.1499993860, -10.6521122225,   0.0000000000)
 A2 = ( -12.3000001905,   0.0000000000,   0.0000000000)
 A3 = (   0.0000000000,   0.0000000000, -20.0000000000)


Analysis of symmetry for initial positions (statically):
=====================================================================
 Subroutine PRICEL returns:
 Original cell was already a primitive cell.
 

 Routine SETGRP: Setting up the symmetry group for a 
 hexagonal supercell.


 Subroutine GETGRP returns: Found  1 space group operations
 (whereof  1 operations were pure point group operations)
 out of a pool of 24 trial point group operations.


The static configuration has the point symmetry C_1 .


Analysis of symmetry for dynamics (positions and initial velocities):
=====================================================================
 Subroutine PRICEL returns:
 Original cell was already a primitive cell.
 

 Routine SETGRP: Setting up the symmetry group for a 
 hexagonal supercell.


 Subroutine GETGRP returns: Found  1 space group operations
 (whereof  1 operations were pure point group operations)
 out of a pool of 24 trial point group operations.


The dynamic configuration has the point symmetry C_1 .


 Subroutine INISYM returns: Found  1 space group operations
 (whereof  1 operations are pure point group operations),
 and found     1 'primitive' translations

 
 
 KPOINTS: K-POINTS                                

Automatic generation of k-mesh.
Space group operators:
 irot       det(A)        alpha          n_x          n_y          n_z        tau_x        tau_y        tau_z
    1     1.000000     0.000000     1.000000     0.000000     0.000000     0.000000     0.000000     0.000000
 
 Subroutine IBZKPT returns following result:
 ===========================================
 
 Found      5 irreducible k-points:
 
 Following reciprocal coordinates:
            Coordinates               Weight
  0.000000  0.000000  0.000000      1.000000
  0.333333  0.000000  0.000000      2.000000
  0.000000  0.333333  0.000000      2.000000
  0.333333  0.333333  0.000000      2.000000
 -0.333333  0.333333  0.000000      2.000000
 
 Following cartesian coordinates:
            Coordinates               Weight
  0.000000  0.000000  0.000000      1.000000
  0.027100 -0.015646  0.000000      2.000000
  0.000000  0.031293  0.000000      2.000000
  0.027100  0.015646  0.000000      2.000000
 -0.027100  0.046939  0.000000      2.000000
 


--------------------------------------------------------------------------------------------------------




 Dimension of arrays:
   k-points           NKPTS =      5   k-points in BZ     NKDIM =      5   number of bands    NBANDS=    132
   number of dos      NEDOS =    301   number of ions     NIONS =     51
   non local maximal  LDIM  =      4   non local SUM 2l+1 LMDIM =      8
   total plane-waves  NPLWV = 896000
   max r-space proj   IRMAX =      1   max aug-charges    IRDMAX=  35685
   dimension x,y,z NGX =    80 NGY =   80 NGZ =  140
   dimension x,y,z NGXF=   160 NGYF=  160 NGZF=  280
   support grid    NGXF=   320 NGYF=  320 NGZF=  560
   ions per type =              50   1
   NGX,Y,Z   is equivalent  to a cutoff of  10.81, 10.81, 11.64 a.u.
   NGXF,Y,Z  is equivalent  to a cutoff of  21.63, 21.63, 23.27 a.u.

 SYSTEM =                                          
 POSCAR =  generated by phonopy                    

 Startparameter for this run:
   NWRITE =      2    write-flag & timer
   PREC   = accura    normal or accurate (medium, high low for compatibility)
   ISTART =      1    job   : 0-new  1-cont  2-samecut
   ICHARG =      1    charge: 1-file 2-atom 10-const
   ISPIN  =      1    spin polarized calculation?
   LNONCOLLINEAR =      F non collinear calculations
   LSORBIT =      F    spin-orbit coupling
   INIWAV =      1    electr: 0-lowe 1-rand  2-diag
   LASPH  =      F    aspherical Exc in radial PAW
   METAGGA=      F    non-selfconsistent MetaGGA calc.

 Electronic Relaxation 1
   ENCUT  =  400.0 eV  29.40 Ry    5.42 a.u.  20.06 20.06 32.61*2*pi/ulx,y,z
   ENINI  =  400.0     initial cutoff
   ENAUG  =  644.9 eV  augmentation charge cutoff
   NELM   =    300;   NELMIN=  2; NELMDL=  0     # of ELM steps 
   EDIFF  = 0.1E-04   stopping-criterion for ELM
   LREAL  =      F    real-space projection
   NLSPLINE    = F    spline interpolate recip. space projectors
   LCOMPAT=      F    compatible to vasp.4.4
   GGA_COMPAT  = T    GGA compatible to vasp.4.4-vasp.4.6
   LMAXPAW     = -100 max onsite density
   LMAXMIX     =    2 max onsite mixed and CHGCAR
   VOSKOWN=      0    Vosko Wilk Nusair interpolation
   ROPT   =    0.00000   0.00000
 Ionic relaxation
   EDIFFG = -.1E-02   stopping-criterion for IOM
   NSW    =      1    number of steps for IOM
   NBLOCK =      1;   KBLOCK =      1    inner block; outer block 
   IBRION =     -1    ionic relax: 0-MD 1-quasi-New 2-CG
   NFREE  =      0    steps in history (QN), initial steepest desc. (CG)
   ISIF   =      2    stress and relaxation
   IWAVPR =     10    prediction:  0-non 1-charg 2-wave 3-comb
   ISYM   =      2    0-nonsym 1-usesym 2-fastsym
   LCORR  =      T    Harris-Foulkes like correction to forces

   POTIM  = 0.5000    time-step for ionic-motion
   TEIN   =    0.0    initial temperature
   TEBEG  =    0.0;   TEEND  =   0.0 temperature during run
   SMASS  =  -3.00    Nose mass-parameter (am)
   estimated Nose-frequenzy (Omega)   =  0.10E-29 period in steps =****** mass=  -0.346E-26a.u.
   SCALEE = 1.0000    scale energy and forces
   NPACO  =    256;   APACO  = 16.0  distance and # of slots for P.C.
   PSTRESS=    0.0 pullay stress

  Mass of Ions in am
   POMASS =  12.01 16.00
  Ionic Valenz
   ZVAL   =   4.00  6.00
  Atomic Wigner-Seitz radii
   RWIGS  =  -1.00 -1.00
  virtual crystal weights 
   VCA    =   1.00  1.00
   NELECT =     206.0000    total number of electrons
   NUPDOWN=      -1.0000    fix difference up-down

 DOS related values:
   EMIN   =  10.00;   EMAX   =-10.00  energy-range for DOS
   EFERMI =   0.00
   ISMEAR =     0;   SIGMA  =   0.05  broadening in eV -4-tet -1-fermi 0-gaus

 Electronic relaxation 2 (details)
   IALGO  =     68    algorithm
   LDIAG  =      T    sub-space diagonalisation (order eigenvalues)
   LSUBROT=      F    optimize rotation matrix (better conditioning)
   TURBO    =      0    0=normal 1=particle mesh
   IRESTART =      0    0=no restart 2=restart with 2 vectors
   NREBOOT  =      0    no. of reboots
   NMIN     =      0    reboot dimension
   EREF     =   0.00    reference energy to select bands
   IMIX   =      4    mixing-type and parameters
     AMIX     =   0.40;   BMIX     =  1.00
     AMIX_MAG =   1.60;   BMIX_MAG =  1.00
     AMIN     =   0.10
     WC   =   100.;   INIMIX=   1;  MIXPRE=   1;  MAXMIX= -45

 Intra band minimization:
   WEIMIN = 0.0000     energy-eigenvalue tresh-hold
   EBREAK =  0.19E-07  absolut break condition
   DEPER  =   0.30     relativ break condition  

   TIME   =   0.40     timestep for ELM

  volume/ion in A,a.u.               =      51.38       346.73
  Fermi-wavevector in a.u.,A,eV,Ry     =   0.701305  1.325274  6.691736  0.491829
  Thomas-Fermi vector in A             =   1.785695
 
 Write flags
   LWAVE        =      F    write WAVECAR
   LDOWNSAMPLE  =      F    k-point downsampling of WAVECAR
   LCHARG       =      F    write CHGCAR
   LVTOT        =      F    write LOCPOT, total local potential
   LVHAR        =      F    write LOCPOT, Hartree potential only
   LELF         =      F    write electronic localiz. function (ELF)
   LORBIT       =      0    0 simple, 1 ext, 2 COOP (PROOUT), +10 PAW based schemes


 Dipole corrections
   LMONO  =      F    monopole corrections only (constant potential shift)
   LDIPOL =      F    correct potential (dipole corrections)
   IDIPOL =      0    1-x, 2-y, 3-z, 4-all directions 
   EPSILON=  1.0000000 bulk dielectric constant

 Exchange correlation treatment:
   GGA     =    --    GGA type
   LEXCH   =     8    internal setting for exchange type
   VOSKOWN=      0    Vosko Wilk Nusair interpolation
   LHFCALC =     F    Hartree Fock is set to
   LHFONE  =     F    Hartree Fock one center treatment
   AEXX    =    0.0000 exact exchange contribution

 Linear response parameters
   LEPSILON=     F    determine dielectric tensor
   LRPA    =     F    only Hartree local field effects (RPA)
   LNABLA  =     F    use nabla operator in PAW spheres
   LVEL    =     F    velocity operator in full k-point grid
   LINTERFAST=   F  fast interpolation
   KINTER  =     0    interpolate to denser k-point grid
   CSHIFT  =0.1000    complex shift for real part using Kramers Kronig
   OMEGAMAX=  -1.0    maximum frequency
   DEG_THRESHOLD= 0.2000000E-02 threshold for treating states as degnerate
   RTIME   =   -0.100 relaxation time in fs
  (WPLASMAI=    0.000 imaginary part of plasma frequency in eV, 0.658/RTIME)
   DFIELD  = 0.0000000 0.0000000 0.0000000 field for delta impulse in time
 
 Orbital magnetization related:
   ORBITALMAG=     F  switch on orbital magnetization
   LCHIMAG   =     F  perturbation theory with respect to B field
   DQ        =  0.001000  dq finite difference perturbation B field
   LLRAUG    =     F  two centre corrections for induced B field



--------------------------------------------------------------------------------------------------------


 Static calculation
 charge density and potential will be updated during run
 non-spin polarized calculation
 RMM-DIIS sequential band-by-band and
  variant of blocked Davidson during initial phase
 perform sub-space diagonalisation
    before iterative eigenvector-optimisation
 modified Broyden-mixing scheme, WC =      100.0
 initial mixing is a Kerker type mixing with AMIX =  0.4000 and BMIX =      1.0000
 Hartree-type preconditioning will be used
 using additional bands           29
 reciprocal scheme for non local part
 use partial core corrections
 calculate Harris-corrections to forces 
   (improved forces if not selfconsistent)
 use gradient corrections 
 use of overlap-Matrix (Vanderbilt PP)
 Gauss-broadening in eV      SIGMA  =   0.05


--------------------------------------------------------------------------------------------------------


  energy-cutoff  :      400.00
  volume of cell :     2620.42
      direct lattice vectors                 reciprocal lattice vectors
    12.300000191  0.000000000  0.000000000     0.081300812 -0.046939053  0.000000000
     6.150000804 10.652112223  0.000000000     0.000000000  0.093878095  0.000000000
     0.000000000  0.000000000 20.000000000     0.000000000  0.000000000  0.050000000

  length of vectors
    12.300000191 12.300000191 20.000000000     0.093878095  0.093878095  0.050000000


 
 old parameters found on file WAVECAR:
  energy-cutoff  :      400.00
  volume of cell :     2620.42
      direct lattice vectors                 reciprocal lattice vectors
    12.300000191  0.000000000  0.000000000     0.081300812 -0.046939053  0.000000000
     6.150000804 10.652112223  0.000000000     0.000000000  0.093878095  0.000000000
     0.000000000  0.000000000 20.000000000     0.000000000  0.000000000  0.050000000

  length of vectors

 
 k-points in units of 2pi/SCALE and weight: K-POINTS                                
   0.00000000  0.00000000  0.00000000       0.111
   0.02710027 -0.01564635  0.00000000       0.222
   0.00000000  0.03129270  0.00000000       0.222
   0.02710027  0.01564635  0.00000000       0.222
  -0.02710027  0.04693905  0.00000000       0.222
 
 k-points in reciprocal lattice and weights: K-POINTS                                
   0.00000000  0.00000000  0.00000000       0.111
   0.33333333  0.00000000  0.00000000       0.222
   0.00000000  0.33333333  0.00000000       0.222
   0.33333333  0.33333333  0.00000000       0.222
  -0.33333333  0.33333333  0.00000000       0.222
 
 position of ions in fractional coordinates (direct lattice) 
   0.00000000  0.00000000  0.41799748
   0.20000000  0.00000000  0.41799748
   0.40000000  0.00000000  0.41799748
   0.60000000  0.00000000  0.41799748
   0.80000000  0.00000000  0.41799748
   0.00000000  0.20000000  0.41799748
   0.20000000  0.20000000  0.41799748
   0.40000000  0.20000000  0.41799748
   0.60000000  0.20000000  0.41799748
   0.80000000  0.20000000  0.41799748
   0.00000000  0.40000000  0.41799748
   0.20000000  0.40000000  0.41799748
   0.40000000  0.40000000  0.41799748
   0.60000000  0.40000000  0.41799748
   0.80000000  0.40000000  0.41799748
   0.00000000  0.60000000  0.41799748
   0.20000000  0.60000000  0.41799748
   0.40000000  0.60000000  0.41799748
   0.60000000  0.60000000  0.41799748
   0.80000000  0.60000000  0.41799748
   0.00000000  0.80000000  0.41799748
   0.20000000  0.80000000  0.41799748
   0.40000000  0.80000000  0.41799748
   0.60000000  0.80000000  0.41799748
   0.80000000  0.80000000  0.41799748
   0.06666667  0.06666660  0.41800609
   0.26666667  0.06666660  0.41750609
   0.46666667  0.06666660  0.41800609
   0.66666667  0.06666660  0.41800609
   0.86666667  0.06666660  0.41800609
   0.06666667  0.26666660  0.41800609
   0.26666667  0.26666660  0.41800609
   0.46666667  0.26666660  0.41800609
   0.66666667  0.26666660  0.41800609
   0.86666667  0.26666660  0.41800609
   0.06666667  0.46666660  0.41800609
   0.26666667  0.46666660  0.41800609
   0.46666667  0.46666660  0.41800609
   0.66666667  0.46666660  0.41800609
   0.86666667  0.46666660  0.41800609
   0.06666667  0.66666660  0.41800609
   0.26666667  0.66666660  0.41800609
   0.46666667  0.66666660  0.41800609
   0.66666667  0.66666660  0.41800609
   0.86666667  0.66666660  0.41800609
   0.06666667  0.86666660  0.41800609
   0.26666667  0.86666660  0.41800609
   0.46666667  0.86666660  0.41800609
   0.66666667  0.86666660  0.41800609
   0.86666667  0.86666660  0.41800609
   0.40000000  0.40000000  0.46800609
 
 position of ions in cartesian coordinates  (Angst):
   0.00000000  0.00000000  8.35994958
   2.46000004  0.00000000  8.35994958
   4.92000008  0.00000000  8.35994958
   7.38000011  0.00000000  8.35994958
   9.84000015  0.00000000  8.35994958
   1.23000016  2.13042244  8.35994958
   3.69000020  2.13042244  8.35994958
   6.15000024  2.13042244  8.35994958
   8.61000028  2.13042244  8.35994958
  11.07000031  2.13042244  8.35994958
   2.46000032  4.26084489  8.35994958
   4.92000036  4.26084489  8.35994958
   7.38000040  4.26084489  8.35994958
   9.84000044  4.26084489  8.35994958
  12.30000047  4.26084489  8.35994958
   3.69000048  6.39126733  8.35994958
   6.15000052  6.39126733  8.35994958
   8.61000056  6.39126733  8.35994958
  11.07000060  6.39126733  8.35994958
  13.53000064  6.39126733  8.35994958
   4.92000064  8.52168978  8.35994958
   7.38000068  8.52168978  8.35994958
   9.84000072  8.52168978  8.35994958
  12.30000076  8.52168978  8.35994958
  14.76000080  8.52168978  8.35994958
   1.22999970  0.71014014  8.36012184
   3.68999974  0.71014014  8.35012184
   6.14999977  0.71014014  8.36012184
   8.60999981  0.71014014  8.36012184
  11.06999985  0.71014014  8.36012184
   2.45999986  2.84056258  8.36012184
   4.91999990  2.84056258  8.36012184
   7.37999994  2.84056258  8.36012184
   9.83999997  2.84056258  8.36012184
  12.30000001  2.84056258  8.36012184
   3.69000002  4.97098503  8.36012184
   6.15000006  4.97098503  8.36012184
   8.61000010  4.97098503  8.36012184
  11.07000013  4.97098503  8.36012184
  13.53000017  4.97098503  8.36012184
   4.92000018  7.10140747  8.36012184
   7.38000022  7.10140747  8.36012184
   9.84000026  7.10140747  8.36012184
  12.30000030  7.10140747  8.36012184
  14.76000033  7.10140747  8.36012184
   6.15000034  9.23182991  8.36012184
   8.61000038  9.23182991  8.36012184
  11.07000042  9.23182991  8.36012184
  13.53000046  9.23182991  8.36012184
  15.99000049  9.23182991  8.36012184
   7.38000040  4.26084489  9.36012184
 


--------------------------------------------------------------------------------------------------------


 k-point  1 :   0.0000 0.0000 0.0000  plane waves:   47639
 k-point  2 :   0.3333 0.0000 0.0000  plane waves:   47601
 k-point  3 :   0.0000 0.3333 0.0000  plane waves:   47601
 k-point  4 :   0.3333 0.3333 0.0000  plane waves:   47601
 k-point  5 :  -0.3333 0.3333 0.0000  plane waves:   47598

 maximum and minimum number of plane-waves per node :      5975     5928

 maximum number of plane-waves:     47639
 maximum index in each direction: 
   IXMAX=   20   IYMAX=   20   IZMAX=   32
   IXMIN=  -20   IYMIN=  -20   IZMIN=  -32


 parallel 3D FFT for wavefunctions:
    minimum data exchange during FFTs selected (reduces bandwidth)
 parallel 3D FFT for charge:
    minimum data exchange during FFTs selected (reduces bandwidth)


 total amount of memory used by VASP MPI-rank0    90113. kBytes
=======================================================================

   base      :      30000. kBytes
   nonl-proj :       8674. kBytes
   fftplans  :      26248. kBytes
   grid      :      14579. kBytes
   one-center:         21. kBytes
   wavefun   :      10591. kBytes
 
     INWAV:  cpu time    0.8231: real time    0.8236
 Broyden mixing: mesh for mixing (old mesh)
   NGX = 41   NGY = 41   NGZ = 65
  (NGX  =160   NGY  =160   NGZ  =280)
  gives a total of 109265 points

 initial charge density was supplied:
 number of electron     206.0000000 magnetization 
 keeping initial charge density in first step


--------------------------------------------------------------------------------------------------------


 Maximum index for augmentation-charges         1119 (set IRDMAX)


--------------------------------------------------------------------------------------------------------


 First call to EWALD:  gamma=   0.129
 Maximum number of real-space cells 3x 3x 2
 Maximum number of reciprocal cells 3x 3x 4

    FEWALD:  cpu time    0.0014: real time    0.0033


--------------------------------------- Iteration      1(   1)  ---------------------------------------


    POTLOK:  cpu time    0.1060: real time    0.1129
    SETDIJ:  cpu time    0.0828: real time    0.0849
     EDDAV:  cpu time    4.1102: real time    4.1133
       DOS:  cpu time    0.0005: real time    0.0005
    CHARGE:  cpu time    0.3979: real time    0.3980
    MIXING:  cpu time    0.0055: real time    0.0057
    --------------------------------------------
      LOOP:  cpu time    4.7029: real time    4.7154

 eigenvalue-minimisations  :  1356
 total energy-change (2. order) :-0.4532955E+03  (-0.2841140E+02)
 number of electron     206.0000000 magnetization 
 augmentation part        5.5093725 magnetization 

 Broyden mixing:
  rms(total) = 0.48975E-01    rms(broyden)= 0.48940E-01
  rms(prec ) = 0.50351E-01
  weight for this iteration     100.00

 Free energy of the ion-electron system (eV)
  ---------------------------------------------------
  alpha Z        PSCENC =        82.54348252
  Ewald energy   TEWEN  =     34516.48035698
  -Hartree energ DENC   =    -41034.79489929
  -exchange      EXHF   =         0.00000000
  -V(xc)+E(xc)   XCENC  =       721.37966554
  PAW double counting   =     22781.19595426   -22817.52509957
  entropy T*S    EENTRO =        -0.00051354
  eigenvalues    EBANDS =     -2491.19885716
  atomic energy  EATOM  =      7788.62438962
  Solvation  Ediel_sol  =         0.00000000
  ---------------------------------------------------
  free energy    TOTEN  =      -453.29552063 eV

  energy without entropy =     -453.29500709  energy(sigma->0) =     -453.29526386


--------------------------------------------------------------------------------------------------------




--------------------------------------- Iteration      1(   2)  ---------------------------------------


    POTLOK:  cpu time    0.1048: real time    0.1059
    SETDIJ:  cpu time    0.0798: real time    0.0815
    EDDIAG:  cpu time    0.8886: real time    0.8887
  RMM-DIIS:  cpu time    3.7866: real time    3.7889
    ORTHCH:  cpu time    0.0415: real time    0.0416
       DOS:  cpu time    0.0004: real time    0.0004
    CHARGE:  cpu time    0.3980: real time    0.3984
    MIXING:  cpu time    0.0040: real time    0.0042
    --------------------------------------------
      LOOP:  cpu time    5.3037: real time    5.3095

 eigenvalue-minimisations  :  1418
 total energy-change (2. order) :-0.9878399E+00  (-0.9900612E+00)
 number of electron     206.0000000 magnetization 
 augmentation part        5.5408882 magnetization 

 Broyden mixing:
  rms(total) = 0.19876E-01    rms(broyden)= 0.19820E-01
  rms(prec ) = 0.21213E-01
  weight for this iteration     100.00

 eigenvalues of (default mixing * dielectric matrix)
  average eigenvalue GAMMA=   0.7360
  0.7360

 Free energy of the ion-electron system (eV)
  ---------------------------------------------------
  alpha Z        PSCENC =        82.54348252
  Ewald energy   TEWEN  =     34516.48035698
  -Hartree energ DENC   =    -41032.26404522
  -exchange      EXHF   =         0.00000000
  -V(xc)+E(xc)   XCENC  =       721.27230465
  PAW double counting   =     22841.96562092   -22878.24342963
  entropy T*S    EENTRO =        -0.00009669
  eigenvalues    EBANDS =     -2494.66194369
  atomic energy  EATOM  =      7788.62438962
  Solvation  Ediel_sol  =         0.00000000
  ---------------------------------------------------
  free energy    TOTEN  =      -454.28336054 eV

  energy without entropy =     -454.28326384  energy(sigma->0) =     -454.28331219


--------------------------------------------------------------------------------------------------------




--------------------------------------- Iteration      1(   3)  ---------------------------------------


    POTLOK:  cpu time    0.0983: real time    0.0995
    SETDIJ:  cpu time    0.0800: real time    0.0815
    EDDIAG:  cpu time    0.8893: real time    0.8906
  RMM-DIIS:  cpu time    4.1395: real time    4.1416
    ORTHCH:  cpu time    0.0412: real time    0.0412
       DOS:  cpu time    0.0004: real time    0.0004
    CHARGE:  cpu time    0.3948: real time    0.3949
    MIXING:  cpu time    0.0043: real time    0.0043
    --------------------------------------------
      LOOP:  cpu time    5.6478: real time    5.6540

 eigenvalue-minimisations  :  1570
 total energy-change (2. order) :-0.5231999E-01  (-0.5852278E-01)
 number of electron     206.0000000 magnetization 
 augmentation part        5.5434323 magnetization 

 Broyden mixing:
  rms(total) = 0.15109E-01    rms(broyden)= 0.15095E-01
  rms(prec ) = 0.15643E-01
  weight for this iteration     100.00

 eigenvalues of (default mixing * dielectric matrix)
  average eigenvalue GAMMA=   0.6558
  0.6558  0.6558

 Free energy of the ion-electron system (eV)
  ---------------------------------------------------
  alpha Z        PSCENC =        82.54348252
  Ewald energy   TEWEN  =     34516.48035698
  -Hartree energ DENC   =    -41032.95443982
  -exchange      EXHF   =         0.00000000
  -V(xc)+E(xc)   XCENC  =       721.30450188
  PAW double counting   =     22830.88661458   -22867.17905648
  entropy T*S    EENTRO =        -0.00012575
  eigenvalues    EBANDS =     -2494.04140405
  atomic energy  EATOM  =      7788.62438962
  Solvation  Ediel_sol  =         0.00000000
  ---------------------------------------------------
  free energy    TOTEN  =      -454.33568053 eV

  energy without entropy =     -454.33555478  energy(sigma->0) =     -454.33561765


--------------------------------------------------------------------------------------------------------




--------------------------------------- Iteration      1(   4)  ---------------------------------------


    POTLOK:  cpu time    0.0975: real time    0.0981
    SETDIJ:  cpu time    0.0872: real time    0.0872
    EDDIAG:  cpu time    0.8857: real time    0.8861
  RMM-DIIS:  cpu time    4.1107: real time    4.1125
    ORTHCH:  cpu time    0.0470: real time    0.0473
       DOS:  cpu time    0.0003: real time    0.0003
    CHARGE:  cpu time    0.3959: real time    0.3960
    MIXING:  cpu time    0.0052: real time    0.0052
    --------------------------------------------
      LOOP:  cpu time    5.6294: real time    5.6328

 eigenvalue-minimisations  :  1563
 total energy-change (2. order) :-0.3886867E-02  (-0.4061766E-02)
 number of electron     206.0000000 magnetization 
 augmentation part        5.5459260 magnetization 

 Broyden mixing:
  rms(total) = 0.15238E-01    rms(broyden)= 0.15237E-01
  rms(prec ) = 0.15698E-01
  weight for this iteration     100.00

 eigenvalues of (default mixing * dielectric matrix)
  average eigenvalue GAMMA=   0.8712
  1.0401  1.0401  0.5334

 Free energy of the ion-electron system (eV)
  ---------------------------------------------------
  alpha Z        PSCENC =        82.54348252
  Ewald energy   TEWEN  =     34516.48035698
  -Hartree energ DENC   =    -41033.27137861
  -exchange      EXHF   =         0.00000000
  -V(xc)+E(xc)   XCENC  =       721.31871761
  PAW double counting   =     22822.75260266   -22859.05218868
  entropy T*S    EENTRO =        -0.00011014
  eigenvalues    EBANDS =     -2493.73543935
  atomic energy  EATOM  =      7788.62438962
  Solvation  Ediel_sol  =         0.00000000
  ---------------------------------------------------
  free energy    TOTEN  =      -454.33956740 eV

  energy without entropy =     -454.33945725  energy(sigma->0) =     -454.33951232


--------------------------------------------------------------------------------------------------------




--------------------------------------- Iteration      1(   5)  ---------------------------------------


    POTLOK:  cpu time    0.0978: real time    0.0980
    SETDIJ:  cpu time    0.0798: real time    0.0798
    EDDIAG:  cpu time    0.8866: real time    0.8871
  RMM-DIIS:  cpu time    4.0569: real time    4.0592
    ORTHCH:  cpu time    0.0414: real time    0.0415
       DOS:  cpu time    0.0003: real time    0.0003
    CHARGE:  cpu time    0.3958: real time    0.3962
    MIXING:  cpu time    0.0045: real time    0.0045
    --------------------------------------------
      LOOP:  cpu time    5.5631: real time    5.5666

 eigenvalue-minimisations  :  1537
 total energy-change (2. order) :-0.1458484E-03  (-0.3028583E-03)
 number of electron     206.0000000 magnetization 
 augmentation part        5.5452092 magnetization 

 Broyden mixing:
  rms(total) = 0.84656E-02    rms(broyden)= 0.84653E-02
  rms(prec ) = 0.86901E-02
  weight for this iteration     100.00

 eigenvalues of (default mixing * dielectric matrix)
  average eigenvalue GAMMA=   1.1335
  1.5207  1.5207  0.5681  0.9248

 Free energy of the ion-electron system (eV)
  ---------------------------------------------------
  alpha Z        PSCENC =        82.54348252
  Ewald energy   TEWEN  =     34516.48035698
  -Hartree energ DENC   =    -41033.94034136
  -exchange      EXHF   =         0.00000000
  -V(xc)+E(xc)   XCENC  =       721.34665267
  PAW double counting   =     22802.27955414   -22838.59369138
  entropy T*S    EENTRO =        -0.00011243
  eigenvalues    EBANDS =     -2493.08000400
  atomic energy  EATOM  =      7788.62438962
  Solvation  Ediel_sol  =         0.00000000
  ---------------------------------------------------
  free energy    TOTEN  =      -454.33971325 eV

  energy without entropy =     -454.33960081  energy(sigma->0) =     -454.33965703


--------------------------------------------------------------------------------------------------------




--------------------------------------- Iteration      1(   6)  ---------------------------------------


    POTLOK:  cpu time    0.0992: real time    0.1007
    SETDIJ:  cpu time    0.0797: real time    0.0811
    EDDIAG:  cpu time    0.8924: real time    0.8933
  RMM-DIIS:  cpu time    4.0230: real time    4.0253
    ORTHCH:  cpu time    0.0414: real time    0.0414
       DOS:  cpu time    0.0003: real time    0.0003
    CHARGE:  cpu time    0.3962: real time    0.3962
    MIXING:  cpu time    0.0052: real time    0.0052
    --------------------------------------------
      LOOP:  cpu time    5.5373: real time    5.5434

 eigenvalue-minimisations  :  1517
 total energy-change (2. order) :-0.5338421E-05  (-0.5214448E-04)
 number of electron     206.0000000 magnetization 
 augmentation part        5.5444791 magnetization 

 Broyden mixing:
  rms(total) = 0.99037E-03    rms(broyden)= 0.98707E-03
  rms(prec ) = 0.10306E-02
  weight for this iteration     100.00

 eigenvalues of (default mixing * dielectric matrix)
  average eigenvalue GAMMA=   1.2119
  2.1147  1.2045  1.2045  0.9713  0.5647

 Free energy of the ion-electron system (eV)
  ---------------------------------------------------
  alpha Z        PSCENC =        82.54348252
  Ewald energy   TEWEN  =     34516.48035698
  -Hartree energ DENC   =    -41034.71897776
  -exchange      EXHF   =         0.00000000
  -V(xc)+E(xc)   XCENC  =       721.37912355
  PAW double counting   =     22778.97047926   -22815.30063578
  entropy T*S    EENTRO =        -0.00011419
  eigenvalues    EBANDS =     -2492.31782279
  atomic energy  EATOM  =      7788.62438962
  Solvation  Ediel_sol  =         0.00000000
  ---------------------------------------------------
  free energy    TOTEN  =      -454.33971858 eV

  energy without entropy =     -454.33960440  energy(sigma->0) =     -454.33966149


--------------------------------------------------------------------------------------------------------




--------------------------------------- Iteration      1(   7)  ---------------------------------------


    POTLOK:  cpu time    0.0974: real time    0.0976
    SETDIJ:  cpu time    0.0796: real time    0.0796
    EDDIAG:  cpu time    0.9088: real time    0.9091
  RMM-DIIS:  cpu time    3.2250: real time    3.2264
    ORTHCH:  cpu time    0.0417: real time    0.0417
       DOS:  cpu time    0.0004: real time    0.0004
    CHARGE:  cpu time    0.4117: real time    0.4121
    MIXING:  cpu time    0.0041: real time    0.0041
    --------------------------------------------
      LOOP:  cpu time    4.7686: real time    4.7710

 eigenvalue-minimisations  :  1174
 total energy-change (2. order) :-0.1773794E-04  (-0.4202490E-05)
 number of electron     206.0000000 magnetization 
 augmentation part        5.5442327 magnetization 

 Broyden mixing:
  rms(total) = 0.13749E-02    rms(broyden)= 0.13743E-02
  rms(prec ) = 0.14274E-02
  weight for this iteration     100.00

 eigenvalues of (default mixing * dielectric matrix)
  average eigenvalue GAMMA=   1.2938
  2.2257  1.5043  1.5043  0.9833  0.9833  0.5616

 Free energy of the ion-electron system (eV)
  ---------------------------------------------------
  alpha Z        PSCENC =        82.54348252
  Ewald energy   TEWEN  =     34516.48035698
  -Hartree energ DENC   =    -41034.89029864
  -exchange      EXHF   =         0.00000000
  -V(xc)+E(xc)   XCENC  =       721.38586700
  PAW double counting   =     22775.84465103   -22812.17742275
  entropy T*S    EENTRO =        -0.00011535
  eigenvalues    EBANDS =     -2492.15064673
  atomic energy  EATOM  =      7788.62438962
  Solvation  Ediel_sol  =         0.00000000
  ---------------------------------------------------
  free energy    TOTEN  =      -454.33973632 eV

  energy without entropy =     -454.33962098  energy(sigma->0) =     -454.33967865


--------------------------------------------------------------------------------------------------------




--------------------------------------- Iteration      1(   8)  ---------------------------------------


    POTLOK:  cpu time    0.0983: real time    0.0985
    SETDIJ:  cpu time    0.0789: real time    0.0789
    EDDIAG:  cpu time    0.9082: real time    0.9087
  RMM-DIIS:  cpu time    2.6783: real time    2.6815
    ORTHCH:  cpu time    0.0412: real time    0.0412
       DOS:  cpu time    0.0004: real time    0.0004
    --------------------------------------------
      LOOP:  cpu time    3.8054: real time    3.8092

 eigenvalue-minimisations  :   936
 total energy-change (2. order) :-0.2856368E-05  (-0.9217228E-06)
 number of electron     206.0000000 magnetization 
 augmentation part        5.5442327 magnetization 

 Free energy of the ion-electron system (eV)
  ---------------------------------------------------
  alpha Z        PSCENC =        82.54348252
  Ewald energy   TEWEN  =     34516.48035698
  -Hartree energ DENC   =    -41034.76671290
  -exchange      EXHF   =         0.00000000
  -V(xc)+E(xc)   XCENC  =       721.38018072
  PAW double counting   =     22780.40482080   -22816.73433256
  entropy T*S    EENTRO =        -0.00011502
  eigenvalues    EBANDS =     -2492.27180933
  atomic energy  EATOM  =      7788.62438962
  Solvation  Ediel_sol  =         0.00000000
  ---------------------------------------------------
  free energy    TOTEN  =      -454.33973918 eV

  energy without entropy =     -454.33962416  energy(sigma->0) =     -454.33968167


--------------------------------------------------------------------------------------------------------




 average (electrostatic) potential at core
  the test charge radii are     0.6991  0.7215
  (the norm of the test charge is              1.0000)
       1 -58.2605       2 -58.2605       3 -58.2040       4 -58.0587       5 -58.2040
       6 -58.2605       7 -58.2764       8 -58.1333       9 -58.1333      10 -58.2763
      11 -58.2039      12 -58.1334      13 -60.6872      14 -58.1334      15 -58.2040
      16 -58.0586      17 -58.1334      18 -58.1334      19 -58.0585      20 -58.0653
      21 -58.2040      22 -58.2763      23 -58.2039      24 -58.0654      25 -58.0654
      26 -58.3821      27 -58.2928      28 -58.2221      29 -58.2221      30 -58.2929
      31 -58.2928      32 -58.3149      33 -58.8119      34 -58.3148      35 -58.2929
      36 -58.2220      37 -58.8119      38 -58.8119      39 -58.2221      40 -58.2234
      41 -58.2220      42 -58.3149      43 -58.2221      44 -58.1642      45 -58.1642
      46 -58.2929      47 -58.2928      48 -58.2235      49 -58.1643      50 -58.2235
      51 -81.5749
 
 
 
 E-fermi :  -3.0174     XC(G=0):  -2.2138     alpha+bet : -1.9409


 k-point     1 :       0.0000    0.0000    0.0000
  band No.  band energies     occupation 
      1     -31.7406      2.00000
      2     -22.2712      2.00000
      3     -21.5033      2.00000
      4     -21.5032      2.00000
      5     -21.3946      2.00000
      6     -21.3946      2.00000
      7     -21.3941      2.00000
      8     -20.8745      2.00000
      9     -19.8768      2.00000
     10     -19.8768      2.00000
     11     -19.5494      2.00000
     12     -19.5494      2.00000
     13     -19.5392      2.00000
     14     -19.1915      2.00000
     15     -18.9012      2.00000
     16     -18.9012      2.00000
     17     -18.6438      2.00000
     18     -18.6433      2.00000
     19     -18.6432      2.00000
     20     -17.8844      2.00000
     21     -17.0217      2.00000
     22     -17.0217      2.00000
     23     -16.4780      2.00000
     24     -16.4584      2.00000
     25     -16.4584      2.00000
     26     -16.0498      2.00000
     27     -15.9969      2.00000
     28     -15.9969      2.00000
     29     -15.4977      2.00000
     30     -15.4977      2.00000
     31     -15.4932      2.00000
     32     -15.0899      2.00000
     33     -14.6296      2.00000
     34     -14.6295      2.00000
     35     -14.1500      2.00000
     36     -14.1500      2.00000
     37     -14.1433      2.00000
     38     -13.9649      2.00000
     39     -12.9914      2.00000
     40     -12.9913      2.00000
     41     -12.0314      2.00000
     42     -11.7651      2.00000
     43     -11.7651      2.00000
     44     -11.7619      2.00000
     45     -11.6906      2.00000
     46     -11.6905      2.00000
     47     -11.6519      2.00000
     48     -11.6500      2.00000
     49     -11.6499      2.00000
     50     -11.6490      2.00000
     51     -10.8023      2.00000
     52     -10.8022      2.00000
     53     -10.4289      2.00000
     54     -10.3344      2.00000
     55     -10.2890      2.00000
     56     -10.2890      2.00000
     57     -10.2708      2.00000
     58     -10.0782      2.00000
     59      -9.6864      2.00000
     60      -9.6859      2.00000
     61      -9.3257      2.00000
     62      -9.3250      2.00000
     63      -9.3004      2.00000
     64      -9.2794      2.00000
     65      -9.2791      2.00000
     66      -9.0462      2.00000
     67      -9.0049      2.00000
     68      -9.0049      2.00000
     69      -8.9488      2.00000
     70      -8.9412      2.00000
     71      -8.9407      2.00000
     72      -8.9403      2.00000
     73      -8.9192      2.00000
     74      -8.9192      2.00000
     75      -8.8933      2.00000
     76      -8.4365      2.00000
     77      -7.8031      2.00000
     78      -7.8021      2.00000
     79      -7.3245      2.00000
     80      -7.3240      2.00000
     81      -7.3105      2.00000
     82      -7.3007      2.00000
     83      -7.3006      2.00000
     84      -7.2981      2.00000
     85      -7.1610      2.00000
     86      -7.1607      2.00000
     87      -7.1551      2.00000
     88      -6.7515      2.00000
     89      -6.5096      2.00000
     90      -6.5069      2.00000
     91      -6.2671      2.00000
     92      -6.2466      2.00000
     93      -6.2466      2.00000
     94      -5.9234      2.00000
     95      -5.9212      2.00000
     96      -5.1959      2.00000
     97      -4.7643      2.00000
     98      -4.7637      2.00000
     99      -4.2708      2.00000
    100      -4.2665      2.00000
    101      -4.2665      2.00000
    102      -3.2149      2.00000
    103      -3.2147      2.00000
    104      -2.9165      0.00431
    105      -1.4615      0.00000
    106      -1.4572      0.00000
    107      -1.4572      0.00000
    108      -0.9915      0.00000
    109      -0.9914      0.00000
    110      -0.5430      0.00000
    111       0.4168      0.00000
    112       0.4214      0.00000
    113       0.4216      0.00000
    114       0.5625      0.00000
    115       0.8431      0.00000
    116       0.8434      0.00000
    117       1.2920      0.00000
    118       1.3393      0.00000
    119       1.6745      0.00000
    120       1.8026      0.00000
    121       1.8028      0.00000
    122       1.8039      0.00000
    123       1.8267      0.00000
    124       1.8273      0.00000
    125       2.0311      0.00000
    126       2.1765      0.00000
    127       2.1793      0.00000
    128       2.1793      0.00000
    129       2.3457      0.00000
    130       2.3468      0.00000
    131       2.6321      0.00000
    132       2.6394      0.00000

 k-point     2 :       0.3333    0.0000    0.0000
  band No.  band energies     occupation 
      1     -31.7407      2.00000
      2     -22.1892      2.00000
      3     -21.8695      2.00000
      4     -21.6615      2.00000
      5     -21.4548      2.00000
      6     -21.0349      2.00000
      7     -20.8974      2.00000
      8     -20.7277      2.00000
      9     -20.4203      2.00000
     10     -20.1624      2.00000
     11     -19.7872      2.00000
     12     -19.6994      2.00000
     13     -19.3266      2.00000
     14     -19.2431      2.00000
     15     -19.0619      2.00000
     16     -18.5930      2.00000
     17     -18.4581      2.00000
     18     -18.1215      2.00000
     19     -18.0632      2.00000
     20     -17.5911      2.00000
     21     -17.4981      2.00000
     22     -17.3010      2.00000
     23     -17.2768      2.00000
     24     -16.8517      2.00000
     25     -16.6587      2.00000
     26     -16.1764      2.00000
     27     -15.9782      2.00000
     28     -15.8479      2.00000
     29     -15.2986      2.00000
     30     -15.1700      2.00000
     31     -15.1345      2.00000
     32     -14.8851      2.00000
     33     -14.7820      2.00000
     34     -14.4783      2.00000
     35     -14.4563      2.00000
     36     -13.7674      2.00000
     37     -13.7602      2.00000
     38     -13.1963      2.00000
     39     -13.0896      2.00000
     40     -12.9344      2.00000
     41     -12.9047      2.00000
     42     -12.5854      2.00000
     43     -12.5502      2.00000
     44     -12.3902      2.00000
     45     -12.0223      2.00000
     46     -11.6637      2.00000
     47     -11.4476      2.00000
     48     -11.2964      2.00000
     49     -11.1220      2.00000
     50     -10.9146      2.00000
     51     -10.8503      2.00000
     52     -10.5845      2.00000
     53     -10.5330      2.00000
     54     -10.2855      2.00000
     55     -10.2370      2.00000
     56     -10.1617      2.00000
     57     -10.0495      2.00000
     58      -9.8535      2.00000
     59      -9.8205      2.00000
     60      -9.6541      2.00000
     61      -9.6078      2.00000
     62      -9.5609      2.00000
     63      -9.5273      2.00000
     64      -9.3705      2.00000
     65      -9.3410      2.00000
     66      -9.2595      2.00000
     67      -9.1759      2.00000
     68      -9.0998      2.00000
     69      -9.0825      2.00000
     70      -8.8653      2.00000
     71      -8.7126      2.00000
     72      -8.6650      2.00000
     73      -8.5047      2.00000
     74      -8.4032      2.00000
     75      -8.2878      2.00000
     76      -8.1338      2.00000
     77      -8.0944      2.00000
     78      -8.0656      2.00000
     79      -7.9717      2.00000
     80      -7.8071      2.00000
     81      -7.6210      2.00000
     82      -7.3600      2.00000
     83      -7.3365      2.00000
     84      -7.2673      2.00000
     85      -7.1981      2.00000
     86      -6.9204      2.00000
     87      -6.8735      2.00000
     88      -6.6925      2.00000
     89      -6.5907      2.00000
     90      -6.3490      2.00000
     91      -6.1857      2.00000
     92      -6.0730      2.00000
     93      -5.9221      2.00000
     94      -5.7395      2.00000
     95      -5.6407      2.00000
     96      -5.3226      2.00000
     97      -5.1152      2.00000
     98      -4.9703      2.00000
     99      -4.9228      2.00000
    100      -4.2700      2.00000
    101      -4.1689      2.00000
    102      -3.3367      2.00000
    103      -3.1371      1.99929
    104      -2.8041      0.00000
    105      -1.5914      0.00000
    106      -1.4238      0.00000
    107      -0.8402      0.00000
    108      -0.8194      0.00000
    109      -0.7062      0.00000
    110      -0.6680      0.00000
    111      -0.1288      0.00000
    112      -0.0064      0.00000
    113       0.2928      0.00000
    114       0.7046      0.00000
    115       0.7268      0.00000
    116       1.0995      0.00000
    117       1.1753      0.00000
    118       1.3647      0.00000
    119       1.4623      0.00000
    120       1.5377      0.00000
    121       1.5702      0.00000
    122       1.6372      0.00000
    123       1.8239      0.00000
    124       1.9115      0.00000
    125       2.0389      0.00000
    126       2.2211      0.00000
    127       2.2651      0.00000
    128       2.3284      0.00000
    129       2.3392      0.00000
    130       2.3955      0.00000
    131       2.4577      0.00000
    132       2.7949      0.00000

 k-point     3 :       0.0000    0.3333    0.0000
  band No.  band energies     occupation 
      1     -31.7407      2.00000
      2     -22.1892      2.00000
      3     -21.8695      2.00000
      4     -21.6615      2.00000
      5     -21.4548      2.00000
      6     -21.0349      2.00000
      7     -20.8974      2.00000
      8     -20.7277      2.00000
      9     -20.4203      2.00000
     10     -20.1625      2.00000
     11     -19.7872      2.00000
     12     -19.6994      2.00000
     13     -19.3265      2.00000
     14     -19.2431      2.00000
     15     -19.0619      2.00000
     16     -18.5930      2.00000
     17     -18.4582      2.00000
     18     -18.1215      2.00000
     19     -18.0632      2.00000
     20     -17.5911      2.00000
     21     -17.4981      2.00000
     22     -17.3010      2.00000
     23     -17.2768      2.00000
     24     -16.8517      2.00000
     25     -16.6587      2.00000
     26     -16.1764      2.00000
     27     -15.9782      2.00000
     28     -15.8479      2.00000
     29     -15.2986      2.00000
     30     -15.1700      2.00000
     31     -15.1345      2.00000
     32     -14.8851      2.00000
     33     -14.7820      2.00000
     34     -14.4783      2.00000
     35     -14.4562      2.00000
     36     -13.7674      2.00000
     37     -13.7602      2.00000
     38     -13.1963      2.00000
     39     -13.0896      2.00000
     40     -12.9345      2.00000
     41     -12.9047      2.00000
     42     -12.5854      2.00000
     43     -12.5502      2.00000
     44     -12.3903      2.00000
     45     -12.0224      2.00000
     46     -11.6637      2.00000
     47     -11.4476      2.00000
     48     -11.2964      2.00000
     49     -11.1220      2.00000
     50     -10.9145      2.00000
     51     -10.8504      2.00000
     52     -10.5845      2.00000
     53     -10.5330      2.00000
     54     -10.2857      2.00000
     55     -10.2368      2.00000
     56     -10.1616      2.00000
     57     -10.0496      2.00000
     58      -9.8536      2.00000
     59      -9.8205      2.00000
     60      -9.6538      2.00000
     61      -9.6065      2.00000
     62      -9.5602      2.00000
     63      -9.5277      2.00000
     64      -9.3714      2.00000
     65      -9.3408      2.00000
     66      -9.2602      2.00000
     67      -9.1758      2.00000
     68      -9.0998      2.00000
     69      -9.0832      2.00000
     70      -8.8653      2.00000
     71      -8.7132      2.00000
     72      -8.6645      2.00000
     73      -8.5042      2.00000
     74      -8.4027      2.00000
     75      -8.2875      2.00000
     76      -8.1333      2.00000
     77      -8.0950      2.00000
     78      -8.0667      2.00000
     79      -7.9717      2.00000
     80      -7.8085      2.00000
     81      -7.6201      2.00000
     82      -7.3600      2.00000
     83      -7.3354      2.00000
     84      -7.2666      2.00000
     85      -7.1977      2.00000
     86      -6.9205      2.00000
     87      -6.8726      2.00000
     88      -6.6941      2.00000
     89      -6.5919      2.00000
     90      -6.3484      2.00000
     91      -6.1859      2.00000
     92      -6.0732      2.00000
     93      -5.9218      2.00000
     94      -5.7388      2.00000
     95      -5.6406      2.00000
     96      -5.3227      2.00000
     97      -5.1154      2.00000
     98      -4.9702      2.00000
     99      -4.9228      2.00000
    100      -4.2701      2.00000
    101      -4.1691      2.00000
    102      -3.3367      2.00000
    103      -3.1369      1.99928
    104      -2.8042      0.00000
    105      -1.5915      0.00000
    106      -1.4239      0.00000
    107      -0.8401      0.00000
    108      -0.8193      0.00000
    109      -0.7063      0.00000
    110      -0.6681      0.00000
    111      -0.1287      0.00000
    112      -0.0063      0.00000
    113       0.2926      0.00000
    114       0.7046      0.00000
    115       0.7269      0.00000
    116       1.1007      0.00000
    117       1.1737      0.00000
    118       1.3643      0.00000
    119       1.4628      0.00000
    120       1.5380      0.00000
    121       1.5705      0.00000
    122       1.6374      0.00000
    123       1.8244      0.00000
    124       1.9123      0.00000
    125       2.0401      0.00000
    126       2.2261      0.00000
    127       2.2664      0.00000
    128       2.3353      0.00000
    129       2.4247      0.00000
    130       2.7292      0.00000
    131       3.2545      0.00000
    132       3.6285      0.00000

 k-point     4 :       0.3333    0.3333    0.0000
  band No.  band energies     occupation 
      1     -31.7407      2.00000
      2     -22.1892      2.00000
      3     -21.8695      2.00000
      4     -21.6615      2.00000
      5     -21.4547      2.00000
      6     -21.0349      2.00000
      7     -20.8974      2.00000
      8     -20.7277      2.00000
      9     -20.4203      2.00000
     10     -20.1624      2.00000
     11     -19.7872      2.00000
     12     -19.6994      2.00000
     13     -19.3265      2.00000
     14     -19.2431      2.00000
     15     -19.0619      2.00000
     16     -18.5930      2.00000
     17     -18.4582      2.00000
     18     -18.1216      2.00000
     19     -18.0632      2.00000
     20     -17.5911      2.00000
     21     -17.4981      2.00000
     22     -17.3010      2.00000
     23     -17.2768      2.00000
     24     -16.8517      2.00000
     25     -16.6587      2.00000
     26     -16.1764      2.00000
     27     -15.9782      2.00000
     28     -15.8479      2.00000
     29     -15.2986      2.00000
     30     -15.1700      2.00000
     31     -15.1345      2.00000
     32     -14.8851      2.00000
     33     -14.7820      2.00000
     34     -14.4783      2.00000
     35     -14.4563      2.00000
     36     -13.7674      2.00000
     37     -13.7602      2.00000
     38     -13.1963      2.00000
     39     -13.0896      2.00000
     40     -12.9345      2.00000
     41     -12.9047      2.00000
     42     -12.5854      2.00000
     43     -12.5502      2.00000
     44     -12.3903      2.00000
     45     -12.0224      2.00000
     46     -11.6637      2.00000
     47     -11.4477      2.00000
     48     -11.2964      2.00000
     49     -11.1220      2.00000
     50     -10.9145      2.00000
     51     -10.8503      2.00000
     52     -10.5845      2.00000
     53     -10.5330      2.00000
     54     -10.2855      2.00000
     55     -10.2370      2.00000
     56     -10.1615      2.00000
     57     -10.0493      2.00000
     58      -9.8539      2.00000
     59      -9.8205      2.00000
     60      -9.6542      2.00000
     61      -9.6075      2.00000
     62      -9.5604      2.00000
     63      -9.5272      2.00000
     64      -9.3712      2.00000
     65      -9.3410      2.00000
     66      -9.2594      2.00000
     67      -9.1760      2.00000
     68      -9.1000      2.00000
     69      -9.0827      2.00000
     70      -8.8650      2.00000
     71      -8.7129      2.00000
     72      -8.6646      2.00000
     73      -8.5053      2.00000
     74      -8.4030      2.00000
     75      -8.2880      2.00000
     76      -8.1347      2.00000
     77      -8.0933      2.00000
     78      -8.0648      2.00000
     79      -7.9716      2.00000
     80      -7.8079      2.00000
     81      -7.6208      2.00000
     82      -7.3619      2.00000
     83      -7.3366      2.00000
     84      -7.2660      2.00000
     85      -7.1974      2.00000
     86      -6.9203      2.00000
     87      -6.8736      2.00000
     88      -6.6926      2.00000
     89      -6.5912      2.00000
     90      -6.3483      2.00000
     91      -6.1843      2.00000
     92      -6.0747      2.00000
     93      -5.9219      2.00000
     94      -5.7393      2.00000
     95      -5.6410      2.00000
     96      -5.3225      2.00000
     97      -5.1152      2.00000
     98      -4.9703      2.00000
     99      -4.9228      2.00000
    100      -4.2700      2.00000
    101      -4.1690      2.00000
    102      -3.3368      2.00000
    103      -3.1369      1.99928
    104      -2.8041      0.00000
    105      -1.5915      0.00000
    106      -1.4238      0.00000
    107      -0.8401      0.00000
    108      -0.8193      0.00000
    109      -0.7062      0.00000
    110      -0.6681      0.00000
    111      -0.1288      0.00000
    112      -0.0063      0.00000
    113       0.2929      0.00000
    114       0.7045      0.00000
    115       0.7268      0.00000
    116       1.0995      0.00000
    117       1.1766      0.00000
    118       1.3652      0.00000
    119       1.4637      0.00000
    120       1.5575      0.00000
    121       1.5755      0.00000
    122       1.7176      0.00000
    123       1.8256      0.00000
    124       2.1702      0.00000
    125       2.3347      0.00000
    126       2.3960      0.00000
    127       2.6108      0.00000
    128       2.7565      0.00000
    129       2.8357      0.00000
    130       3.2028      0.00000
    131       3.5969      0.00000
    132       4.1735      0.00000

 k-point     5 :      -0.3333    0.3333    0.0000
  band No.  band energies     occupation 
      1     -31.7407      2.00000
      2     -22.0807      2.00000
      3     -22.0078      2.00000
      4     -21.8019      2.00000
      5     -21.1723      2.00000
      6     -21.1507      2.00000
      7     -20.8676      2.00000
      8     -20.4134      2.00000
      9     -20.3391      2.00000
     10     -20.1722      2.00000
     11     -20.1506      2.00000
     12     -20.1432      2.00000
     13     -19.5671      2.00000
     14     -18.8265      2.00000
     15     -18.6748      2.00000
     16     -18.3727      2.00000
     17     -18.3491      2.00000
     18     -18.3366      2.00000
     19     -17.9303      2.00000
     20     -17.8017      2.00000
     21     -17.6018      2.00000
     22     -17.2617      2.00000
     23     -17.1534      2.00000
     24     -17.1209      2.00000
     25     -16.5434      2.00000
     26     -16.4379      2.00000
     27     -16.2846      2.00000
     28     -15.8088      2.00000
     29     -15.6292      2.00000
     30     -15.1757      2.00000
     31     -14.9698      2.00000
     32     -14.6528      2.00000
     33     -13.9604      2.00000
     34     -13.9396      2.00000
     35     -13.9248      2.00000
     36     -13.8739      2.00000
     37     -13.8641      2.00000
     38     -13.7923      2.00000
     39     -13.6749      2.00000
     40     -13.4951      2.00000
     41     -13.0380      2.00000
     42     -12.4749      2.00000
     43     -12.2542      2.00000
     44     -12.0717      2.00000
     45     -11.8237      2.00000
     46     -11.7734      2.00000
     47     -11.5635      2.00000
     48     -11.5459      2.00000
     49     -11.5230      2.00000
     50     -10.9295      2.00000
     51     -10.8181      2.00000
     52     -10.5305      2.00000
     53     -10.2063      2.00000
     54     -10.2040      2.00000
     55     -10.1944      2.00000
     56     -10.0949      2.00000
     57     -10.0526      2.00000
     58     -10.0220      2.00000
     59      -9.9032      2.00000
     60      -9.7521      2.00000
     61      -9.7483      2.00000
     62      -9.5647      2.00000
     63      -9.4412      2.00000
     64      -9.4078      2.00000
     65      -9.1987      2.00000
     66      -9.0469      2.00000
     67      -9.0330      2.00000
     68      -8.9014      2.00000
     69      -8.8858      2.00000
     70      -8.6870      2.00000
     71      -8.6374      2.00000
     72      -8.6355      2.00000
     73      -8.6244      2.00000
     74      -8.5837      2.00000
     75      -8.3746      2.00000
     76      -8.2522      2.00000
     77      -8.1653      2.00000
     78      -8.0358      2.00000
     79      -7.9842      2.00000
     80      -7.8798      2.00000
     81      -7.8581      2.00000
     82      -7.8550      2.00000
     83      -7.2247      2.00000
     84      -7.1850      2.00000
     85      -7.1273      2.00000
     86      -6.8858      2.00000
     87      -6.7219      2.00000
     88      -6.6132      2.00000
     89      -6.4605      2.00000
     90      -6.2678      2.00000
     91      -6.1025      2.00000
     92      -5.9168      2.00000
     93      -5.9113      2.00000
     94      -5.8979      2.00000
     95      -5.4523      2.00000
     96      -5.4256      2.00000
     97      -5.1222      2.00000
     98      -5.0143      2.00000
     99      -4.9805      2.00000
    100      -4.9579      2.00000
    101      -3.7328      2.00000
    102      -3.4586      2.00000
    103      -3.2802      2.00000
    104      -2.3874      0.00000
    105      -2.2243      0.00000
    106      -0.9287      0.00000
    107      -0.8823      0.00000
    108      -0.8679      0.00000
    109      -0.5386      0.00000
    110      -0.2642      0.00000
    111      -0.2113      0.00000
    112       0.2517      0.00000
    113       0.2580      0.00000
    114       0.2603      0.00000
    115       0.5984      0.00000
    116       0.7922      0.00000
    117       0.9482      0.00000
    118       0.9742      0.00000
    119       1.0619      0.00000
    120       1.7333      0.00000
    121       1.7447      0.00000
    122       1.7666      0.00000
    123       1.8257      0.00000
    124       2.1121      0.00000
    125       2.1161      0.00000
    126       2.1207      0.00000
    127       2.2468      0.00000
    128       2.2481      0.00000
    129       2.3615      0.00000
    130       2.9989      0.00000
    131       3.0115      0.00000
    132       3.0359      0.00000


--------------------------------------------------------------------------------------------------------


 soft charge-density along one line, spin component           1
         0         1         2         3         4         5         6         7         8         9
 total charge-density along one line
 
 pseudopotential strength for first ion, spin component:           1
 10.222  13.594   0.000  -0.000   0.000  -0.000   0.000  -0.000
 13.594  18.076   0.000  -0.000   0.000  -0.000   0.000  -0.000
  0.000   0.000  -4.352  -0.000  -0.000   8.513   0.000   0.000
 -0.000  -0.000  -0.000  -4.344  -0.000   0.000   8.502   0.000
  0.000   0.000  -0.000  -0.000  -4.352   0.000   0.000   8.513
 -0.000  -0.000   8.513   0.000   0.000 -18.787  -0.000  -0.000
  0.000   0.000   0.000   8.502   0.000  -0.000 -18.776  -0.000
 -0.000  -0.000   0.000   0.000   8.513  -0.000  -0.000 -18.787
 total augmentation occupancy for first ion, spin component:           1
  8.358  -3.741   0.001   0.000   0.003   0.000   0.000   0.001
 -3.741   1.730  -0.002  -0.000  -0.003  -0.000  -0.000  -0.000
  0.001  -0.002   1.840  -0.000  -0.001   0.174   0.000   0.000
  0.000  -0.000  -0.000   1.223  -0.000   0.000   0.078   0.000
  0.003  -0.003  -0.001  -0.000   1.839   0.000   0.000   0.174
  0.000  -0.000   0.174   0.000   0.000   0.018   0.000   0.000
  0.000  -0.000   0.000   0.078   0.000   0.000   0.005   0.000
  0.001  -0.000   0.000   0.000   0.174   0.000   0.000   0.018


------------------------ aborting loop because EDIFF is reached ----------------------------------------


    CHARGE:  cpu time    0.4116: real time    0.4117
    FORLOC:  cpu time    0.0273: real time    0.0273
    FORNL :  cpu time    1.9621: real time    1.9632
    STRESS:  cpu time    3.2929: real time    3.2952
    FORCOR:  cpu time    0.1202: real time    0.1206
    FORHAR:  cpu time    0.0479: real time    0.0493
    MIXING:  cpu time    0.0037: real time    0.0037
    OFIELD:  cpu time    0.0001: real time    0.0001

  FORCE on cell =-STRESS in cart. coord.  units (eV):
  Direction    XX          YY          ZZ          XY          YZ          ZX
  --------------------------------------------------------------------------------------
  Alpha Z    82.54348    82.54348    82.54348
  Ewald   41234.40555 41234.39137-47952.33723    -0.03444     0.03576     0.04322
  Hartree 40516.65349 40516.64548-39998.53072    -0.03287     0.03257     0.04056
  E(xc)    -777.14873  -777.14879  -804.22661    -0.00001     0.00001     0.00001
  Local  -83988.71687-83988.69714 85337.23588     0.06783    -0.06957    -0.08408
  n-local  -203.93812  -203.93804  -194.69616     0.00002     0.00006    -0.00003
  augment   -12.37991   -12.37929   -14.04639    -0.00044    -0.00000     0.00001
  Kinetic  3164.13828  3164.13709  3596.31774    -0.00054     0.00281    -0.00023
  Fock        0.00000     0.00000     0.00000     0.00000     0.00000     0.00000
  -------------------------------------------------------------------------------------
  Total      15.55718    15.55416    52.25999    -0.00045     0.00163    -0.00055
  in kB       9.51197     9.51012    31.95281    -0.00028     0.00100    -0.00034
  external pressure =       16.99 kB  Pullay stress =        0.00 kB


 VOLUME and BASIS-vectors are now :
 -----------------------------------------------------------------------------
  energy-cutoff  :      400.00
  volume of cell :     2620.42
      direct lattice vectors                 reciprocal lattice vectors
    12.300000191  0.000000000  0.000000000     0.081300812 -0.046939053  0.000000000
     6.150000804 10.652112223  0.000000000     0.000000000  0.093878095  0.000000000
     0.000000000  0.000000000 20.000000000     0.000000000  0.000000000  0.050000000

  length of vectors
    12.300000191 12.300000191 20.000000000     0.093878095  0.093878095  0.050000000


 FORCES acting on ions
    electron-ion (+dipol)            ewald-force                    non-local-force                 convergence-correction
 -----------------------------------------------------------------------------------------------
   -.148E+01 -.855E+00 0.275E+01   0.135E+01 0.778E+00 -.274E+01   0.852E-01 0.491E-01 0.303E-02   -.655E-04 -.175E-05 0.192E-04
   0.147E+01 -.858E+00 0.202E+01   -.134E+01 0.782E+00 -.198E+01   -.858E-01 0.488E-01 -.946E-01   0.333E-03 -.118E-03 -.673E-03
   0.371E+01 0.642E+01 0.304E+01   -.375E+01 -.648E+01 -.296E+01   -.114E+00 0.765E-01 -.167E+00   -.259E-03 -.964E-04 -.692E-03
   0.474E-03 0.129E+02 0.476E+01   -.211E-03 -.131E+02 -.489E+01   -.107E-03 0.134E-01 0.114E+00   -.240E-03 0.102E-04 -.161E-04
   -.370E+01 0.642E+01 0.379E+01   0.374E+01 -.649E+01 -.374E+01   0.114E+00 0.771E-01 -.717E-01   0.113E-03 0.103E-03 0.737E-04
   -.450E-03 0.171E+01 0.269E+01   0.390E-03 -.156E+01 -.268E+01   -.128E-03 -.984E-01 -.373E-02   0.100E-03 -.220E-04 -.156E-03
   0.117E+02 0.674E+01 0.411E+01   -.113E+02 -.655E+01 -.414E+01   0.108E+00 0.625E-01 -.382E-01   -.177E-03 -.269E-03 -.724E-03
   0.209E+02 0.362E+02 0.185E+02   -.214E+02 -.371E+02 -.189E+02   0.638E+00 0.654E+00 0.541E+00   -.830E-04 -.233E-03 -.768E-04
   -.209E+02 0.362E+02 0.186E+02   0.214E+02 -.371E+02 -.190E+02   -.638E+00 0.654E+00 0.546E+00   0.110E-03 0.714E-04 0.715E-05
   -.117E+02 0.673E+01 0.487E+01   0.113E+02 -.655E+01 -.492E+01   -.108E+00 0.623E-01 0.526E-01   -.186E-03 0.203E-04 0.306E-04
   0.741E+01 -.781E-02 0.376E+01   -.749E+01 -.266E-03 -.372E+01   0.972E-02 -.137E+00 -.686E-01   -.436E-05 0.259E-03 0.284E-04
   0.418E+02 -.413E-01 0.186E+02   -.428E+02 -.266E-03 -.190E+02   0.885E+00 0.226E+00 0.548E+00   -.157E-03 0.321E-03 -.111E-03
   0.260E-03 0.192E-03 0.291E+03   -.798E-04 -.138E-03 -.346E+03   0.166E-05 0.374E-03 0.713E+01   -.247E-03 -.256E-04 0.276E-03
   -.418E+02 -.408E-01 0.186E+02   0.428E+02 -.113E-03 -.190E+02   -.885E+00 0.226E+00 0.546E+00   0.349E-04 -.229E-03 -.337E-04
   -.741E+01 -.783E-02 0.379E+01   0.749E+01 -.138E-03 -.374E+01   -.100E-01 -.137E+00 -.711E-01   0.150E-03 0.257E-03 0.542E-04
   0.111E+02 -.644E+01 0.478E+01   -.113E+02 0.655E+01 -.492E+01   0.117E-01 -.664E-02 0.111E+00   -.874E-05 -.184E-04 0.212E-04
   0.210E+02 -.362E+02 0.186E+02   -.214E+02 0.371E+02 -.190E+02   0.247E+00 -.879E+00 0.545E+00   0.896E-05 0.212E-03 -.443E-04
   -.210E+02 -.362E+02 0.186E+02   0.214E+02 0.371E+02 -.190E+02   -.247E+00 -.880E+00 0.546E+00   -.101E-03 0.525E-03 0.122E-03
   -.111E+02 -.644E+01 0.478E+01   0.113E+02 0.655E+01 -.492E+01   -.117E-01 -.671E-02 0.112E+00   0.230E-04 0.222E-03 0.271E-04
   -.169E-04 -.148E+01 0.280E+01   -.551E-04 0.156E+01 -.276E+01   -.122E-03 -.862E-01 -.153E-01   0.593E-04 -.238E-03 0.610E-04
   0.371E+01 -.642E+01 0.379E+01   -.374E+01 0.649E+01 -.375E+01   0.124E+00 0.601E-01 -.715E-01   0.612E-04 -.332E-03 0.598E-04
   -.486E-04 -.135E+02 0.484E+01   0.558E-04 0.131E+02 -.489E+01   -.118E-03 -.125E+00 0.552E-01   0.109E-03 -.143E-03 -.128E-04
   -.371E+01 -.642E+01 0.371E+01   0.374E+01 0.649E+01 -.366E+01   -.124E+00 0.601E-01 -.749E-01   -.889E-04 0.142E-03 -.982E-04
   -.128E+01 0.741E+00 0.277E+01   0.135E+01 -.778E+00 -.274E+01   -.748E-01 0.431E-01 -.115E-01   -.148E-03 0.116E-03 0.308E-04
   0.128E+01 0.741E+00 0.280E+01   -.135E+01 -.778E+00 -.276E+01   0.747E-01 0.432E-01 -.150E-01   0.465E-04 -.581E-04 0.110E-03
   -.115E-02 -.178E-04 0.233E+01   0.993E-03 0.115E-03 -.234E+01   -.813E-04 0.421E-04 0.255E-02   0.217E-03 -.142E-03 -.241E-03
   0.530E+01 0.407E+01 0.813E+01   -.513E+01 -.429E+01 -.814E+01   -.709E-01 0.314E-02 0.167E+00   0.545E-04 -.258E-03 -.162E-02
   0.608E+01 0.171E+02 0.671E+01   -.581E+01 -.171E+02 -.634E+01   -.659E-01 0.161E+00 -.109E+00   0.109E-04 -.249E-03 -.174E-03
   -.607E+01 0.171E+02 0.685E+01   0.581E+01 -.171E+02 -.647E+01   0.662E-01 0.161E+00 -.122E+00   -.204E-03 0.137E-03 0.623E-04
   -.531E+01 0.407E+01 0.338E+01   0.514E+01 -.429E+01 -.335E+01   0.714E-01 0.359E-02 -.249E-01   0.159E-05 0.157E-03 0.745E-04
   0.618E+01 0.256E+01 0.324E+01   -.629E+01 -.231E+01 -.322E+01   -.327E-01 -.636E-01 -.112E-01   0.212E-03 0.464E-04 -.204E-03
   0.283E+02 0.163E+02 0.125E+02   -.286E+02 -.165E+02 -.130E+02   -.158E+00 -.915E-01 0.159E+00   -.395E-04 -.274E-03 -.191E-03
   0.137E-04 0.878E+02 0.586E+02   -.636E-04 -.922E+02 -.663E+02   -.343E-03 -.639E+00 0.330E+01   0.274E-03 -.398E-03 -.255E-03
   -.283E+02 0.163E+02 0.126E+02   0.286E+02 -.165E+02 -.131E+02   0.159E+00 -.914E-01 0.145E+00   0.278E-04 -.266E-03 0.792E-04
   -.618E+01 0.256E+01 0.337E+01   0.629E+01 -.230E+01 -.334E+01   0.326E-01 -.636E-01 -.240E-01   -.203E-03 -.141E-03 -.811E-05
   0.179E+02 -.331E+01 0.684E+01   -.177E+02 0.349E+01 -.646E+01   0.107E+00 -.138E+00 -.120E+00   -.227E-03 0.358E-03 0.802E-04
   0.760E+02 -.439E+02 0.586E+02   -.799E+02 0.461E+02 -.663E+02   -.554E+00 0.320E+00 0.330E+01   -.128E-03 0.440E-03 -.187E-03
   -.760E+02 -.439E+02 0.586E+02   0.799E+02 0.461E+02 -.663E+02   0.554E+00 0.320E+00 0.330E+01   0.331E-03 0.337E-05 -.133E-03
   -.179E+02 -.331E+01 0.686E+01   0.177E+02 0.349E+01 -.648E+01   -.106E+00 -.138E+00 -.121E+00   0.174E-03 0.510E-03 0.626E-04
   -.128E-03 -.609E+00 0.291E+01   0.765E-04 0.845E+00 -.288E+01   -.121E-03 -.154E+00 -.530E-01   0.241E-03 0.321E-03 0.314E-05
   0.118E+02 -.138E+02 0.686E+01   -.119E+02 0.136E+02 -.648E+01   0.172E+00 -.232E-01 -.121E+00   -.552E-04 -.486E-04 0.992E-04
   0.144E-03 -.327E+02 0.126E+02   0.730E-04 0.330E+02 -.131E+02   0.519E-04 0.183E+00 0.144E+00   -.231E-03 0.195E-03 0.161E-04
   -.118E+02 -.138E+02 0.684E+01   0.119E+02 0.136E+02 -.646E+01   -.172E+00 -.232E-01 -.121E+00   0.423E-03 0.146E-03 0.107E-03
   -.385E+01 -.222E+01 0.280E+01   0.378E+01 0.218E+01 -.284E+01   -.197E-01 -.113E-01 0.120E-01   -.196E-03 -.158E-03 0.808E-04
   0.385E+01 -.222E+01 0.281E+01   -.378E+01 0.218E+01 -.285E+01   0.197E-01 -.114E-01 0.129E-01   0.172E-03 -.471E-03 0.651E-04
   0.873E+00 -.663E+01 0.337E+01   -.115E+01 0.660E+01 -.334E+01   0.388E-01 0.600E-01 -.230E-01   0.132E-03 -.327E-03 0.225E-04
   -.874E+00 -.664E+01 0.324E+01   0.115E+01 0.660E+01 -.322E+01   -.388E-01 0.599E-01 -.110E-01   0.142E-03 -.105E-03 -.163E-03
   -.527E+00 0.303E+00 0.277E+01   0.731E+00 -.422E+00 -.275E+01   -.134E+00 0.772E-01 -.397E-01   -.581E-04 0.530E-04 -.239E-03
   0.451E-03 0.444E+01 0.279E+01   -.344E-04 -.437E+01 -.283E+01   0.546E-04 0.227E-01 0.138E-01   -.327E-03 0.863E-04 0.348E-04
   0.527E+00 0.304E+00 0.292E+01   -.732E+00 -.422E+00 -.289E+01   0.134E+00 0.772E-01 -.523E-01   0.127E-03 -.242E-03 0.817E-04
   0.791E-02 0.726E-02 -.723E+03   -.805E-02 -.708E-02 0.846E+03   0.120E-02 -.979E-03 -.638E+02   -.256E-03 0.299E-03 0.318E-03
 -----------------------------------------------------------------------------------------------
   -.166E-03 0.711E-03 0.441E+02   0.640E-13 -.122E-12 -.114E-12   0.668E-03 -.666E-03 -.441E+02   -.143E-05 0.145E-03 -.395E-02
 
 
 POSITION                                       TOTAL-FORCE (eV/Angst)
 -----------------------------------------------------------------------------------
      0.00000      0.00000      8.35995        -0.047669     -0.027704      0.014240
      2.46000      0.00000      8.35995         0.048026     -0.027444     -0.051791
      4.92000      0.00000      8.35995        -0.159909      0.014722     -0.087905
      7.38000      0.00000      8.35995        -0.000094     -0.207597     -0.022269
      9.84000      0.00000      8.35995         0.159129      0.014228     -0.026712
      1.23000      2.13042      8.35995        -0.000097      0.054951      0.005697
      3.69000      2.13042      8.35995         0.428839      0.247065     -0.060341
      6.15000      2.13042      8.35995         0.094569     -0.204897      0.160779
      8.61000      2.13042      8.35995        -0.094559     -0.205105      0.165232
     11.07000      2.13042      8.35995        -0.428955      0.247653      0.000063
      2.46000      4.26084      8.35995        -0.067241     -0.144984     -0.021448
      4.92000      4.26084      8.35995        -0.130491      0.184382      0.170636
      7.38000      4.26084      8.35995        -0.000075      0.000399    -48.157446
      9.84000      4.26084      8.35995         0.130250      0.184534      0.164925
     12.30000      4.26084      8.35995         0.066970     -0.145057     -0.025973
      3.69000      6.39127      8.35995        -0.179912      0.104018     -0.027484
      6.15000      6.39127      8.35995        -0.224897      0.020555      0.163922
      8.61000      6.39127      8.35995         0.225017      0.020177      0.164976
     11.07000      6.39127      8.35995         0.179926      0.103780     -0.026935
     13.53000      6.39127      8.35995        -0.000144     -0.013030      0.017247
      4.92000      8.52169      8.35995         0.091932      0.130640     -0.026508
      7.38000      8.52169      8.35995        -0.000012     -0.495203      0.004979
      9.84000      8.52169      8.35995        -0.091935      0.130610     -0.029689
     12.30000      8.52169      8.35995        -0.011306      0.006314      0.022707
     14.76000      8.52169      8.35995         0.011106      0.006506      0.017365
      1.23000      0.71014      8.36012        -0.000032     -0.000007     -0.002023
      3.69000      0.71014      8.35012         0.097283     -0.217214      0.153481
      6.15000      0.71014      8.36012         0.194423      0.250462      0.261587
      8.61000      0.71014      8.36012        -0.194043      0.250300      0.256998
     11.07000      0.71014      8.36012        -0.097216     -0.217269      0.010346
      2.46000      2.84056      8.36012        -0.139576      0.192959      0.014823
      4.92000      2.84056      8.36012        -0.441541     -0.255180     -0.350965
      7.38000      2.84056      8.36012        -0.000129     -5.076066     -4.349355
      9.84000      2.84056      8.36012         0.441941     -0.255044     -0.355358
     12.30000      2.84056      8.36012         0.139539      0.192817      0.009392
      3.69000      4.97099      8.36012         0.314047      0.042886      0.256399
      6.15000      4.97099      8.36012        -4.396159      2.538172     -4.349142
      8.61000      4.97099      8.36012         4.395996      2.538429     -4.348755
     11.07000      4.97099      8.36012        -0.313837      0.043083      0.257126
     13.53000      4.97099      8.36012         0.000059      0.082321     -0.022054
      4.92000      7.10141      8.36012         0.119419     -0.293145      0.257072
      7.38000      7.10141      8.36012         0.000028      0.510103     -0.355366
      9.84000      7.10141      8.36012        -0.119691     -0.293323      0.256322
     12.30000      7.10141      8.36012        -0.082123     -0.047431     -0.026221
     14.76000      7.10141      8.36012         0.082216     -0.047429     -0.026374
      6.15000      9.23183      8.36012        -0.236752      0.024616      0.009394
      8.61000      9.23183      8.36012         0.236642      0.024485      0.015015
     11.07000      9.23183      8.36012         0.071191     -0.041225     -0.017751
     13.53000      9.23183      8.36012         0.000134      0.094639     -0.027100
     15.99000      9.23183      8.36012        -0.071074     -0.040947     -0.022024
      7.38000      4.26084      9.36012         0.000787     -0.000504     59.986267
 -----------------------------------------------------------------------------------
    total drift:                                0.000501      0.000190      0.001918


--------------------------------------------------------------------------------------------------------



  FREE ENERGIE OF THE ION-ELECTRON SYSTEM (eV)
  ---------------------------------------------------
  free  energy   TOTEN  =      -454.33973918 eV

  energy  without entropy=     -454.33962416  energy(sigma->0) =     -454.33968167
 


--------------------------------------------------------------------------------------------------------


    POTLOK:  cpu time    0.1857: real time    0.1879


--------------------------------------------------------------------------------------------------------


 stress matrix after NEB project (eV)
     15.55718     -0.00045     -0.00055
     -0.00045     15.55416      0.00163
     -0.00055      0.00163     52.25999
  FORCES: max atom, RMS    59.986267   10.896688
  FORCE total and by dimension   77.817921   59.986267
  Stress total and by dimension   56.701539   52.259993
     LOOP+:  cpu time   47.1060: real time   47.1606
    4ORBIT:  cpu time    0.0000: real time    0.0000

 total amount of memory used by VASP MPI-rank0    90113. kBytes
=======================================================================

   base      :      30000. kBytes
   nonl-proj :       8674. kBytes
   fftplans  :      26248. kBytes
   grid      :      14579. kBytes
   one-center:         21. kBytes
   wavefun   :      10591. kBytes
 
  
  
 General timing and accounting informations for this job:
 ========================================================
  
                  Total CPU time used (sec):       54.706
                            User time (sec):       51.198
                          System time (sec):        3.508
                         Elapsed time (sec):       54.828
  
                   Maximum memory used (kb):      373348.
                   Average memory used (kb):           0.
  
                          Minor page faults:       117025
                          Major page faults:            0
                 Voluntary context switches:         1090
