  51  51   0   0
  0.5138078E+02  0.1230000E-08  0.1230000E-08  0.2000000E-08  0.5000000E-15
  1.000000000000000E-004
  CAR 
                                         
      5.97121457    -33.53201690  301     -3.01701646      1.00000000
    -33.532  0.0000E+00  0.0000E+00
    -33.400  0.0000E+00  0.0000E+00
    -33.269  0.0000E+00  0.0000E+00
    -33.137  0.0000E+00  0.0000E+00
    -33.005  0.0000E+00  0.0000E+00
    -32.874  0.0000E+00  0.0000E+00
    -32.742  0.0000E+00  0.0000E+00
    -32.610  0.0000E+00  0.0000E+00
    -32.479  0.0000E+00  0.0000E+00
    -32.347  0.0000E+00  0.0000E+00
    -32.215  0.0000E+00  0.0000E+00
    -32.084  0.0000E+00  0.0000E+00
    -31.952  0.8270E-08  0.1089E-08
    -31.820  0.1346E+00  0.1772E-01
    -31.689  0.1372E+02  0.1824E+01
    -31.557  0.1337E+01  0.2000E+01
    -31.425  0.2906E-05  0.2000E+01
    -31.294  0.0000E+00  0.2000E+01
    -31.162  0.0000E+00  0.2000E+01
    -31.030  0.0000E+00  0.2000E+01
    -30.898  0.0000E+00  0.2000E+01
    -30.767  0.0000E+00  0.2000E+01
    -30.635  0.0000E+00  0.2000E+01
    -30.503  0.0000E+00  0.2000E+01
    -30.372  0.0000E+00  0.2000E+01
    -30.240  0.0000E+00  0.2000E+01
    -30.108  0.0000E+00  0.2000E+01
    -29.977  0.0000E+00  0.2000E+01
    -29.845  0.0000E+00  0.2000E+01
    -29.713  0.0000E+00  0.2000E+01
    -29.582  0.0000E+00  0.2000E+01
    -29.450  0.0000E+00  0.2000E+01
    -29.318  0.0000E+00  0.2000E+01
    -29.187  0.0000E+00  0.2000E+01
    -29.055  0.0000E+00  0.2000E+01
    -28.923  0.0000E+00  0.2000E+01
    -28.792  0.0000E+00  0.2000E+01
    -28.660  0.0000E+00  0.2000E+01
    -28.528  0.0000E+00  0.2000E+01
    -28.397  0.0000E+00  0.2000E+01
    -28.265  0.0000E+00  0.2000E+01
    -28.133  0.0000E+00  0.2000E+01
    -28.002  0.0000E+00  0.2000E+01
    -27.870  0.0000E+00  0.2000E+01
    -27.738  0.0000E+00  0.2000E+01
    -27.607  0.0000E+00  0.2000E+01
    -27.475  0.0000E+00  0.2000E+01
    -27.343  0.0000E+00  0.2000E+01
    -27.211  0.0000E+00  0.2000E+01
    -27.080  0.0000E+00  0.2000E+01
    -26.948  0.0000E+00  0.2000E+01
    -26.816  0.0000E+00  0.2000E+01
    -26.685  0.0000E+00  0.2000E+01
    -26.553  0.0000E+00  0.2000E+01
    -26.421  0.0000E+00  0.2000E+01
    -26.290  0.0000E+00  0.2000E+01
    -26.158  0.0000E+00  0.2000E+01
    -26.026  0.0000E+00  0.2000E+01
    -25.895  0.0000E+00  0.2000E+01
    -25.763  0.0000E+00  0.2000E+01
    -25.631  0.0000E+00  0.2000E+01
    -25.500  0.0000E+00  0.2000E+01
    -25.368  0.0000E+00  0.2000E+01
    -25.236  0.0000E+00  0.2000E+01
    -25.105  0.0000E+00  0.2000E+01
    -24.973  0.0000E+00  0.2000E+01
    -24.841  0.0000E+00  0.2000E+01
    -24.710  0.0000E+00  0.2000E+01
    -24.578  0.0000E+00  0.2000E+01
    -24.446  0.0000E+00  0.2000E+01
    -24.315  0.0000E+00  0.2000E+01
    -24.183  0.0000E+00  0.2000E+01
    -24.051  0.0000E+00  0.2000E+01
    -23.920  0.0000E+00  0.2000E+01
    -23.788  0.0000E+00  0.2000E+01
    -23.656  0.0000E+00  0.2000E+01
    -23.525  0.0000E+00  0.2000E+01
    -23.393  0.0000E+00  0.2000E+01
    -23.261  0.0000E+00  0.2000E+01
    -23.129  0.0000E+00  0.2000E+01
    -22.998  0.0000E+00  0.2000E+01
    -22.866  0.0000E+00  0.2000E+01
    -22.734  0.0000E+00  0.2000E+01
    -22.603  0.0000E+00  0.2000E+01
    -22.471  0.1213E-07  0.2000E+01
    -22.339  0.4384E-01  0.2006E+01
    -22.208  0.4559E+01  0.2606E+01
    -22.076  0.9124E+01  0.3808E+01
    -21.944  0.4880E+01  0.4450E+01
    -21.813  0.1076E+02  0.5867E+01
    -21.681  0.5556E+01  0.6599E+01
    -21.549  0.7600E+01  0.7600E+01
    -21.418  0.1291E+02  0.9300E+01
    -21.286  0.5314E+01  0.1000E+02
    -21.154  0.3862E+01  0.1051E+02
    -21.023  0.9296E+01  0.1173E+02
    -20.891  0.1090E+02  0.1317E+02
    -20.759  0.9911E+01  0.1447E+02
    -20.628  0.8198E+01  0.1555E+02
    -20.496  0.2251E+00  0.1558E+02
    -20.364  0.1323E+02  0.1732E+02
    -20.233  0.3877E+01  0.1784E+02
    -20.101  0.1865E+02  0.2029E+02
    -19.969  0.1190E+01  0.2045E+02
    -19.838  0.3727E+01  0.2094E+02
    -19.706  0.1405E+02  0.2279E+02
    -19.574  0.8306E+01  0.2388E+02
    -19.443  0.5958E+01  0.2467E+02
    -19.311  0.7080E+01  0.2560E+02
    -19.179  0.1391E+02  0.2743E+02
    -19.047  0.7568E+01  0.2843E+02
    -18.916  0.4709E+01  0.2905E+02
    -18.784  0.5195E+01  0.2973E+02
    -18.652  0.5210E+01  0.3042E+02
    -18.521  0.1389E+02  0.3225E+02
    -18.389  0.1144E+02  0.3375E+02
    -18.257  0.8577E+01  0.3488E+02
    -18.126  0.4979E+01  0.3554E+02
    -17.994  0.1519E+02  0.3754E+02
    -17.862  0.4812E+01  0.3817E+02
    -17.731  0.3684E+01  0.3865E+02
    -17.599  0.5973E+01  0.3944E+02
    -17.467  0.1564E+02  0.4150E+02
    -17.336  0.4268E+01  0.4206E+02
    -17.204  0.2134E+02  0.4487E+02
    -17.072  0.6780E+01  0.4577E+02
    -16.941  0.3479E+01  0.4622E+02
    -16.809  0.8895E+01  0.4740E+02
    -16.677  0.4140E+01  0.4794E+02
    -16.546  0.8799E+01  0.4910E+02
    -16.414  0.8931E+01  0.5027E+02
    -16.282  0.2982E+01  0.5067E+02
    -16.151  0.9281E+01  0.5189E+02
    -16.019  0.6002E+01  0.5268E+02
    -15.887  0.1303E+02  0.5440E+02
    -15.756  0.1192E+02  0.5596E+02
    -15.624  0.2031E+01  0.5623E+02
    -15.492  0.4261E+01  0.5679E+02
    -15.361  0.2782E+01  0.5716E+02
    -15.229  0.1024E+02  0.5851E+02
    -15.097  0.2201E+02  0.6141E+02
    -14.965  0.4843E+01  0.6204E+02
    -14.834  0.1141E+02  0.6355E+02
    -14.702  0.1040E+02  0.6492E+02
    -14.570  0.6406E+01  0.6576E+02
    -14.439  0.1579E+02  0.6784E+02
    -14.307  0.4602E+01  0.6844E+02
    -14.175  0.1096E+01  0.6859E+02
    -14.044  0.4020E+01  0.6912E+02
    -13.912  0.1010E+02  0.7045E+02
    -13.780  0.1724E+02  0.7272E+02
    -13.649  0.1742E+02  0.7501E+02
    -13.517  0.1634E+01  0.7523E+02
    -13.385  0.2494E+01  0.7556E+02
    -13.254  0.5353E+00  0.7563E+02
    -13.122  0.1130E+02  0.7711E+02
    -12.990  0.1392E+02  0.7895E+02
    -12.859  0.2032E+02  0.8162E+02
    -12.727  0.1176E+01  0.8178E+02
    -12.595  0.4838E+01  0.8241E+02
    -12.464  0.1760E+02  0.8473E+02
    -12.332  0.1083E+02  0.8616E+02
    -12.200  0.3636E+01  0.8664E+02
    -12.069  0.3249E+01  0.8707E+02
    -11.937  0.1208E+02  0.8866E+02
    -11.805  0.3709E+01  0.8914E+02
    -11.674  0.1620E+02  0.9128E+02
    -11.542  0.1750E+02  0.9358E+02
    -11.410  0.1350E+02  0.9536E+02
    -11.279  0.8442E+01  0.9647E+02
    -11.147  0.5555E+01  0.9720E+02
    -11.015  0.7782E+01  0.9823E+02
    -10.883  0.1295E+02  0.9993E+02
    -10.752  0.1702E+02  0.1022E+03
    -10.620  0.1947E+01  0.1024E+03
    -10.488  0.2070E+02  0.1052E+03
    -10.357  0.3773E+01  0.1057E+03
    -10.225  0.2458E+02  0.1089E+03
    -10.093  0.2544E+02  0.1122E+03
     -9.962  0.1840E+02  0.1147E+03
     -9.830  0.1509E+02  0.1166E+03
     -9.698  0.1718E+02  0.1189E+03
     -9.567  0.2770E+02  0.1226E+03
     -9.435  0.2045E+02  0.1253E+03
     -9.303  0.2761E+02  0.1289E+03
     -9.172  0.2361E+02  0.1320E+03
     -9.040  0.2867E+02  0.1358E+03
     -8.908  0.1988E+02  0.1384E+03
     -8.777  0.1764E+02  0.1407E+03
     -8.645  0.2331E+02  0.1438E+03
     -8.513  0.1752E+02  0.1461E+03
     -8.382  0.1605E+02  0.1482E+03
     -8.250  0.1579E+02  0.1503E+03
     -8.118  0.1588E+02  0.1524E+03
     -7.987  0.2872E+02  0.1562E+03
     -7.855  0.1612E+02  0.1583E+03
     -7.723  0.1636E+02  0.1604E+03
     -7.592  0.8052E+01  0.1615E+03
     -7.460  0.2212E+01  0.1618E+03
     -7.328  0.1772E+02  0.1641E+03
     -7.197  0.3206E+02  0.1683E+03
     -7.065  0.1585E+02  0.1704E+03
     -6.933  0.4563E+01  0.1710E+03
     -6.801  0.1915E+02  0.1735E+03
     -6.670  0.1270E+02  0.1752E+03
     -6.538  0.1602E+02  0.1773E+03
     -6.406  0.7030E+01  0.1783E+03
     -6.275  0.1256E+02  0.1799E+03
     -6.143  0.1528E+02  0.1819E+03
     -6.011  0.1376E+02  0.1837E+03
     -5.880  0.2021E+02  0.1864E+03
     -5.748  0.7808E+01  0.1874E+03
     -5.616  0.1370E+02  0.1892E+03
     -5.485  0.3206E+01  0.1896E+03
     -5.353  0.7946E+01  0.1907E+03
     -5.221  0.8639E+01  0.1918E+03
     -5.090  0.1169E+02  0.1934E+03
     -4.958  0.1843E+02  0.1958E+03
     -4.826  0.1510E+02  0.1978E+03
     -4.695  0.3195E+01  0.1982E+03
     -4.563  0.9764E-01  0.1982E+03
     -4.431  0.3482E-04  0.1982E+03
     -4.300  0.2951E+01  0.1986E+03
     -4.168  0.1729E+02  0.2009E+03
     -4.036  0.5076E+01  0.2016E+03
     -3.905  0.9933E-03  0.2016E+03
     -3.773  0.3911E+00  0.2016E+03
     -3.641  0.2965E+01  0.2020E+03
     -3.510  0.2876E+00  0.2020E+03
     -3.378  0.4310E+01  0.2026E+03
     -3.246  0.1229E+02  0.2042E+03
     -3.115  0.1082E+02  0.2056E+03
     -2.983  0.2735E+01  0.2060E+03
     -2.851  0.2508E+01  0.2063E+03
     -2.719  0.9167E+01  0.2075E+03
     -2.588  0.8980E-01  0.2076E+03
     -2.456  0.9184E-01  0.2076E+03
     -2.324  0.3169E+01  0.2080E+03
     -2.193  0.2815E+01  0.2084E+03
     -2.061  0.6743E+00  0.2084E+03
     -1.929  0.8358E-05  0.2084E+03
     -1.798  0.2804E-07  0.2084E+03
     -1.666  0.1751E+00  0.2085E+03
     -1.534  0.9486E+01  0.2097E+03
     -1.403  0.1247E+02  0.2114E+03
     -1.271  0.3188E+01  0.2118E+03
     -1.139  0.1446E-03  0.2118E+03
     -1.008  0.1168E+01  0.2119E+03
     -0.876  0.1079E+02  0.2134E+03
     -0.744  0.2312E+02  0.2164E+03
     -0.613  0.1838E+02  0.2188E+03
     -0.481  0.5366E+01  0.2195E+03
     -0.349  0.2705E+00  0.2196E+03
     -0.218  0.4471E+01  0.2201E+03
     -0.086  0.1134E+02  0.2216E+03
      0.046  0.1045E+02  0.2230E+03
      0.177  0.8600E+00  0.2231E+03
      0.309  0.1610E+02  0.2253E+03
      0.441  0.7698E+01  0.2263E+03
      0.572  0.3155E+01  0.2267E+03
      0.704  0.1101E+02  0.2281E+03
      0.836  0.1678E+02  0.2303E+03
      0.967  0.6384E+01  0.2312E+03
      1.099  0.1093E+02  0.2326E+03
      1.231  0.1503E+02  0.2346E+03
      1.363  0.8153E+01  0.2357E+03
      1.494  0.1507E+02  0.2377E+03
      1.626  0.2296E+02  0.2407E+03
      1.758  0.1559E+02  0.2427E+03
      1.889  0.2748E+02  0.2464E+03
      2.021  0.8420E+01  0.2475E+03
      2.153  0.1601E+02  0.2496E+03
      2.284  0.2604E+02  0.2530E+03
      2.416  0.2882E+02  0.2568E+03
      2.548  0.7626E+01  0.2578E+03
      2.679  0.4953E+01  0.2584E+03
      2.811  0.1016E+02  0.2598E+03
      2.943  0.5318E+01  0.2605E+03
      3.074  0.9168E+01  0.2617E+03
      3.206  0.2722E+01  0.2621E+03
      3.338  0.4636E+01  0.2627E+03
      3.469  0.3128E-01  0.2627E+03
      3.601  0.3111E+01  0.2631E+03
      3.733  0.3637E+01  0.2636E+03
      3.864  0.1412E-02  0.2636E+03
      3.996  0.6413E-06  0.2636E+03
      4.128  0.2964E+00  0.2636E+03
      4.259  0.3049E+01  0.2640E+03
      4.391  0.3001E-01  0.2640E+03
      4.523  0.1853E-08  0.2640E+03
      4.654  0.0000E+00  0.2640E+03
      4.786  0.0000E+00  0.2640E+03
      4.918  0.0000E+00  0.2640E+03
      5.049  0.0000E+00  0.2640E+03
      5.181  0.0000E+00  0.2640E+03
      5.313  0.0000E+00  0.2640E+03
      5.445  0.0000E+00  0.2640E+03
      5.576  0.0000E+00  0.2640E+03
      5.708  0.0000E+00  0.2640E+03
      5.840  0.0000E+00  0.2640E+03
      5.971  0.0000E+00  0.2640E+03
