  51  51   0   0
  0.5138078E+02  0.1230000E-08  0.1230000E-08  0.2000000E-08  0.5000000E-15
  1.000000000000000E-004
  CAR 
                                         
      5.97143920    -33.53886841  301     -3.01678500      1.00000000
    -33.539  0.0000E+00  0.0000E+00
    -33.407  0.0000E+00  0.0000E+00
    -33.275  0.0000E+00  0.0000E+00
    -33.144  0.0000E+00  0.0000E+00
    -33.012  0.0000E+00  0.0000E+00
    -32.880  0.0000E+00  0.0000E+00
    -32.749  0.0000E+00  0.0000E+00
    -32.617  0.0000E+00  0.0000E+00
    -32.485  0.0000E+00  0.0000E+00
    -32.354  0.0000E+00  0.0000E+00
    -32.222  0.0000E+00  0.0000E+00
    -32.090  0.0000E+00  0.0000E+00
    -31.958  0.8212E-08  0.1082E-08
    -31.827  0.1344E+00  0.1770E-01
    -31.695  0.1372E+02  0.1824E+01
    -31.563  0.1336E+01  0.2000E+01
    -31.432  0.2891E-05  0.2000E+01
    -31.300  0.0000E+00  0.2000E+01
    -31.168  0.0000E+00  0.2000E+01
    -31.037  0.0000E+00  0.2000E+01
    -30.905  0.0000E+00  0.2000E+01
    -30.773  0.0000E+00  0.2000E+01
    -30.641  0.0000E+00  0.2000E+01
    -30.510  0.0000E+00  0.2000E+01
    -30.378  0.0000E+00  0.2000E+01
    -30.246  0.0000E+00  0.2000E+01
    -30.115  0.0000E+00  0.2000E+01
    -29.983  0.0000E+00  0.2000E+01
    -29.851  0.0000E+00  0.2000E+01
    -29.720  0.0000E+00  0.2000E+01
    -29.588  0.0000E+00  0.2000E+01
    -29.456  0.0000E+00  0.2000E+01
    -29.324  0.0000E+00  0.2000E+01
    -29.193  0.0000E+00  0.2000E+01
    -29.061  0.0000E+00  0.2000E+01
    -28.929  0.0000E+00  0.2000E+01
    -28.798  0.0000E+00  0.2000E+01
    -28.666  0.0000E+00  0.2000E+01
    -28.534  0.0000E+00  0.2000E+01
    -28.403  0.0000E+00  0.2000E+01
    -28.271  0.0000E+00  0.2000E+01
    -28.139  0.0000E+00  0.2000E+01
    -28.007  0.0000E+00  0.2000E+01
    -27.876  0.0000E+00  0.2000E+01
    -27.744  0.0000E+00  0.2000E+01
    -27.612  0.0000E+00  0.2000E+01
    -27.481  0.0000E+00  0.2000E+01
    -27.349  0.0000E+00  0.2000E+01
    -27.217  0.0000E+00  0.2000E+01
    -27.086  0.0000E+00  0.2000E+01
    -26.954  0.0000E+00  0.2000E+01
    -26.822  0.0000E+00  0.2000E+01
    -26.690  0.0000E+00  0.2000E+01
    -26.559  0.0000E+00  0.2000E+01
    -26.427  0.0000E+00  0.2000E+01
    -26.295  0.0000E+00  0.2000E+01
    -26.164  0.0000E+00  0.2000E+01
    -26.032  0.0000E+00  0.2000E+01
    -25.900  0.0000E+00  0.2000E+01
    -25.769  0.0000E+00  0.2000E+01
    -25.637  0.0000E+00  0.2000E+01
    -25.505  0.0000E+00  0.2000E+01
    -25.373  0.0000E+00  0.2000E+01
    -25.242  0.0000E+00  0.2000E+01
    -25.110  0.0000E+00  0.2000E+01
    -24.978  0.0000E+00  0.2000E+01
    -24.847  0.0000E+00  0.2000E+01
    -24.715  0.0000E+00  0.2000E+01
    -24.583  0.0000E+00  0.2000E+01
    -24.451  0.0000E+00  0.2000E+01
    -24.320  0.0000E+00  0.2000E+01
    -24.188  0.0000E+00  0.2000E+01
    -24.056  0.0000E+00  0.2000E+01
    -23.925  0.0000E+00  0.2000E+01
    -23.793  0.0000E+00  0.2000E+01
    -23.661  0.0000E+00  0.2000E+01
    -23.530  0.0000E+00  0.2000E+01
    -23.398  0.0000E+00  0.2000E+01
    -23.266  0.0000E+00  0.2000E+01
    -23.134  0.0000E+00  0.2000E+01
    -23.003  0.0000E+00  0.2000E+01
    -22.871  0.0000E+00  0.2000E+01
    -22.739  0.0000E+00  0.2000E+01
    -22.608  0.0000E+00  0.2000E+01
    -22.476  0.5986E-08  0.2000E+01
    -22.344  0.3301E-01  0.2004E+01
    -22.213  0.4145E+01  0.2550E+01
    -22.081  0.9359E+01  0.3783E+01
    -21.949  0.4983E+01  0.4439E+01
    -21.817  0.1058E+02  0.5832E+01
    -21.686  0.5458E+01  0.6551E+01
    -21.554  0.7892E+01  0.7590E+01
    -21.422  0.1245E+02  0.9230E+01
    -21.291  0.5838E+01  0.9999E+01
    -21.159  0.3522E+01  0.1046E+02
    -21.027  0.9147E+01  0.1167E+02
    -20.896  0.1044E+02  0.1304E+02
    -20.764  0.1040E+02  0.1441E+02
    -20.632  0.8645E+01  0.1555E+02
    -20.500  0.1752E+00  0.1557E+02
    -20.369  0.1282E+02  0.1726E+02
    -20.237  0.4219E+01  0.1782E+02
    -20.105  0.1844E+02  0.2025E+02
    -19.974  0.1514E+01  0.2045E+02
    -19.842  0.3293E+01  0.2088E+02
    -19.710  0.1361E+02  0.2267E+02
    -19.579  0.8803E+01  0.2383E+02
    -19.447  0.6337E+01  0.2467E+02
    -19.315  0.6474E+01  0.2552E+02
    -19.183  0.1429E+02  0.2740E+02
    -19.052  0.7182E+01  0.2835E+02
    -18.920  0.5103E+01  0.2902E+02
    -18.788  0.5227E+01  0.2971E+02
    -18.657  0.5092E+01  0.3038E+02
    -18.525  0.1401E+02  0.3222E+02
    -18.393  0.1123E+02  0.3370E+02
    -18.262  0.8937E+01  0.3488E+02
    -18.130  0.4555E+01  0.3548E+02
    -17.998  0.1554E+02  0.3752E+02
    -17.866  0.4725E+01  0.3815E+02
    -17.735  0.3837E+01  0.3865E+02
    -17.603  0.5565E+01  0.3938E+02
    -17.471  0.1586E+02  0.4147E+02
    -17.340  0.4086E+01  0.4201E+02
    -17.208  0.2156E+02  0.4485E+02
    -17.076  0.6864E+01  0.4576E+02
    -16.945  0.3535E+01  0.4622E+02
    -16.813  0.8670E+01  0.4736E+02
    -16.681  0.4317E+01  0.4793E+02
    -16.549  0.8704E+01  0.4908E+02
    -16.418  0.8957E+01  0.5026E+02
    -16.286  0.3097E+01  0.5067E+02
    -16.154  0.9142E+01  0.5187E+02
    -16.023  0.5785E+01  0.5263E+02
    -15.891  0.1316E+02  0.5436E+02
    -15.759  0.1208E+02  0.5596E+02
    -15.628  0.2075E+01  0.5623E+02
    -15.496  0.4185E+01  0.5678E+02
    -15.364  0.2834E+01  0.5715E+02
    -15.232  0.1006E+02  0.5848E+02
    -15.101  0.2201E+02  0.6138E+02
    -14.969  0.4800E+01  0.6201E+02
    -14.837  0.1135E+02  0.6351E+02
    -14.706  0.1063E+02  0.6490E+02
    -14.574  0.6426E+01  0.6575E+02
    -14.442  0.1540E+02  0.6778E+02
    -14.311  0.5049E+01  0.6844E+02
    -14.179  0.8893E+00  0.6856E+02
    -14.047  0.4201E+01  0.6911E+02
    -13.915  0.9689E+01  0.7039E+02
    -13.784  0.1640E+02  0.7255E+02
    -13.652  0.1850E+02  0.7499E+02
    -13.520  0.1729E+01  0.7522E+02
    -13.389  0.2580E+01  0.7555E+02
    -13.257  0.4159E+00  0.7561E+02
    -13.125  0.1102E+02  0.7706E+02
    -12.994  0.1382E+02  0.7888E+02
    -12.862  0.2058E+02  0.8159E+02
    -12.730  0.1410E+01  0.8178E+02
    -12.598  0.4371E+01  0.8235E+02
    -12.467  0.1792E+02  0.8471E+02
    -12.335  0.1090E+02  0.8615E+02
    -12.203  0.3667E+01  0.8663E+02
    -12.072  0.3043E+01  0.8703E+02
    -11.940  0.1230E+02  0.8865E+02
    -11.808  0.3414E+01  0.8910E+02
    -11.676  0.1558E+02  0.9115E+02
    -11.545  0.1802E+02  0.9353E+02
    -11.413  0.1372E+02  0.9533E+02
    -11.281  0.8447E+01  0.9644E+02
    -11.150  0.5623E+01  0.9719E+02
    -11.018  0.7891E+01  0.9822E+02
    -10.886  0.1256E+02  0.9988E+02
    -10.755  0.1736E+02  0.1022E+03
    -10.623  0.1931E+01  0.1024E+03
    -10.491  0.2035E+02  0.1051E+03
    -10.359  0.4099E+01  0.1056E+03
    -10.228  0.2413E+02  0.1088E+03
    -10.096  0.2567E+02  0.1122E+03
     -9.964  0.1863E+02  0.1147E+03
     -9.833  0.1428E+02  0.1165E+03
     -9.701  0.1772E+02  0.1189E+03
     -9.569  0.2729E+02  0.1225E+03
     -9.438  0.2116E+02  0.1252E+03
     -9.306  0.2719E+02  0.1288E+03
     -9.174  0.2362E+02  0.1319E+03
     -9.042  0.2837E+02  0.1357E+03
     -8.911  0.2043E+02  0.1384E+03
     -8.779  0.1772E+02  0.1407E+03
     -8.647  0.2296E+02  0.1437E+03
     -8.516  0.1753E+02  0.1460E+03
     -8.384  0.1659E+02  0.1482E+03
     -8.252  0.1516E+02  0.1502E+03
     -8.121  0.1590E+02  0.1523E+03
     -7.989  0.2866E+02  0.1561E+03
     -7.857  0.1634E+02  0.1582E+03
     -7.725  0.1664E+02  0.1604E+03
     -7.594  0.7737E+01  0.1614E+03
     -7.462  0.2565E+01  0.1618E+03
     -7.330  0.1685E+02  0.1640E+03
     -7.199  0.3253E+02  0.1683E+03
     -7.067  0.1621E+02  0.1704E+03
     -6.935  0.4202E+01  0.1710E+03
     -6.804  0.1948E+02  0.1735E+03
     -6.672  0.1234E+02  0.1752E+03
     -6.540  0.1619E+02  0.1773E+03
     -6.408  0.7207E+01  0.1782E+03
     -6.277  0.1244E+02  0.1799E+03
     -6.145  0.1535E+02  0.1819E+03
     -6.013  0.1384E+02  0.1837E+03
     -5.882  0.1989E+02  0.1863E+03
     -5.750  0.8030E+01  0.1874E+03
     -5.618  0.1366E+02  0.1892E+03
     -5.487  0.3386E+01  0.1896E+03
     -5.355  0.7859E+01  0.1907E+03
     -5.223  0.8635E+01  0.1918E+03
     -5.091  0.1183E+02  0.1934E+03
     -4.960  0.1797E+02  0.1957E+03
     -4.828  0.1552E+02  0.1978E+03
     -4.696  0.3196E+01  0.1982E+03
     -4.565  0.8831E-01  0.1982E+03
     -4.433  0.2981E-04  0.1982E+03
     -4.301  0.2802E+01  0.1986E+03
     -4.170  0.1765E+02  0.2009E+03
     -4.038  0.4858E+01  0.2016E+03
     -3.906  0.7957E-03  0.2016E+03
     -3.774  0.4581E+00  0.2016E+03
     -3.643  0.2902E+01  0.2020E+03
     -3.511  0.2286E+00  0.2020E+03
     -3.379  0.4310E+01  0.2026E+03
     -3.248  0.1231E+02  0.2042E+03
     -3.116  0.1074E+02  0.2056E+03
     -2.984  0.2836E+01  0.2060E+03
     -2.853  0.2399E+01  0.2063E+03
     -2.721  0.9267E+01  0.2075E+03
     -2.589  0.1033E+00  0.2076E+03
     -2.457  0.7194E-01  0.2076E+03
     -2.326  0.3158E+01  0.2080E+03
     -2.194  0.2846E+01  0.2084E+03
     -2.062  0.6728E+00  0.2084E+03
     -1.931  0.8273E-05  0.2084E+03
     -1.799  0.1682E-07  0.2084E+03
     -1.667  0.1411E+00  0.2085E+03
     -1.536  0.9404E+01  0.2097E+03
     -1.404  0.1254E+02  0.2114E+03
     -1.272  0.3227E+01  0.2118E+03
     -1.140  0.1325E-03  0.2118E+03
     -1.009  0.1080E+01  0.2119E+03
     -0.877  0.1046E+02  0.2133E+03
     -0.745  0.2339E+02  0.2164E+03
     -0.614  0.1845E+02  0.2188E+03
     -0.482  0.5424E+01  0.2195E+03
     -0.350  0.2729E+00  0.2196E+03
     -0.219  0.4379E+01  0.2201E+03
     -0.087  0.1137E+02  0.2216E+03
      0.045  0.1042E+02  0.2230E+03
      0.177  0.9164E+00  0.2231E+03
      0.308  0.1622E+02  0.2253E+03
      0.440  0.7445E+01  0.2262E+03
      0.572  0.3339E+01  0.2267E+03
      0.703  0.1072E+02  0.2281E+03
      0.835  0.1721E+02  0.2304E+03
      0.967  0.6149E+01  0.2312E+03
      1.099  0.1101E+02  0.2326E+03
      1.230  0.1501E+02  0.2346E+03
      1.362  0.8051E+01  0.2357E+03
      1.494  0.1507E+02  0.2376E+03
      1.625  0.2302E+02  0.2407E+03
      1.757  0.1556E+02  0.2427E+03
      1.889  0.2746E+02  0.2463E+03
      2.020  0.8511E+01  0.2475E+03
      2.152  0.1581E+02  0.2495E+03
      2.284  0.2612E+02  0.2530E+03
      2.416  0.2898E+02  0.2568E+03
      2.547  0.7533E+01  0.2578E+03
      2.679  0.6096E+01  0.2586E+03
      2.811  0.9133E+01  0.2598E+03
      2.942  0.5144E+01  0.2605E+03
      3.074  0.9183E+01  0.2617E+03
      3.206  0.2781E+01  0.2621E+03
      3.337  0.4637E+01  0.2627E+03
      3.469  0.3203E-01  0.2627E+03
      3.601  0.3153E+01  0.2631E+03
      3.733  0.3594E+01  0.2636E+03
      3.864  0.1368E-02  0.2636E+03
      3.996  0.6381E-06  0.2636E+03
      4.128  0.2962E+00  0.2636E+03
      4.259  0.3048E+01  0.2640E+03
      4.391  0.2997E-01  0.2640E+03
      4.523  0.1840E-08  0.2640E+03
      4.654  0.0000E+00  0.2640E+03
      4.786  0.0000E+00  0.2640E+03
      4.918  0.0000E+00  0.2640E+03
      5.050  0.0000E+00  0.2640E+03
      5.181  0.0000E+00  0.2640E+03
      5.313  0.0000E+00  0.2640E+03
      5.445  0.0000E+00  0.2640E+03
      5.576  0.0000E+00  0.2640E+03
      5.708  0.0000E+00  0.2640E+03
      5.840  0.0000E+00  0.2640E+03
      5.971  0.0000E+00  0.2640E+03
