 running on   48 total cores
 distrk:  each k-point on   48 cores,    1 groups
 distr:  one band on    8 cores,    6 groups
 using from now: INCAR     
 vasp.5.4.4.18Apr17-6-g9f103f2a35 (build Aug 13 2022 23:40:43) complex          
  
 POSCAR found type information on POSCAR  C  O 
 POSCAR found :  2 types and      51 ions
 scaLAPACK will be used

 ----------------------------------------------------------------------------- 
|                                                                             |
|  ADVICE TO THIS USER RUNNING 'VASP/VAMP'   (HEAR YOUR MASTER'S VOICE ...):  |
|                                                                             |
|      You have a (more or less) 'large supercell' and for larger cells       |
|      it might be more efficient to use real space projection opertators     |
|      So try LREAL= Auto  in the INCAR   file.                               |
|      Mind:          For very  accurate calculation you might also keep the  |
|      reciprocal projection scheme          (i.e. LREAL=.FALSE.)             |
|                                                                             |
 ----------------------------------------------------------------------------- 

 LDA part: xc-table for Pade appr. of Perdew
 POSCAR found type information on POSCAR  C  O 
 POSCAR found :  2 types and      51 ions
 found WAVECAR, reading the header
  number of k-points has changed, file:     3 present:     5
  trying to continue reading WAVECAR, but it might fail
 POSCAR, INCAR and KPOINTS ok, starting setup
 FFT: planning ...
 reading WAVECAR
 the WAVECAR file was read successfully
 charge-density read from file: 1.00000000000000                        
 entering main loop
       N       E                     dE             d eps       ncg     rms          rms(c)
DAV:   1    -0.453294982201E+03   -0.45329E+03   -0.28417E+02  1356   0.216E+01    0.505E-01
RMM:   2    -0.454282607579E+03   -0.98763E+00   -0.99026E+00  1420   0.566E+00    0.215E-01
RMM:   3    -0.454334777466E+03   -0.52170E-01   -0.58531E-01  1570   0.110E+00    0.155E-01
RMM:   4    -0.454338657952E+03   -0.38805E-02   -0.40748E-02  1579   0.312E-01    0.153E-01
RMM:   5    -0.454338759309E+03   -0.10136E-03   -0.31816E-03  1509   0.905E-02    0.624E-02
RMM:   6    -0.454338783940E+03   -0.24631E-04   -0.51952E-04  1521   0.475E-02    0.173E-02
RMM:   7    -0.454338790645E+03   -0.67050E-05   -0.21376E-05  1038   0.108E-02
   1 F= -.45433879E+03 E0= -.45433874E+03  d E =-.107779E-03
