<?xml version="1.0" encoding="ISO-8859-1"?>
<modeling>
 <generator>
  <i name="program" type="string">vasp </i>
  <i name="version" type="string">5.4.4.18Apr17-6-g9f103f2a35  </i>
  <i name="subversion" type="string">(build Aug 13 2022 23:40:43) complex            parallel </i>
  <i name="platform" type="string">LinuxIFC </i>
  <i name="date" type="string">2024 11 10 </i>
  <i name="time" type="string">03:57:00 </i>
 </generator>
 <incar>
  <i type="int" name="ISTART">     1</i>
  <i type="string" name="PREC">accurate</i>
  <i type="string" name="ALGO"> F          N:DAV,fine,slow</i>
  <i type="logical" name="ADDGRID"> T  </i>
  <i type="int" name="ISPIN">     1</i>
  <i type="int" name="ICHARG">     1</i>
  <i type="int" name="NELM">   300</i>
  <i type="int" name="IBRION">    -1</i>
  <i name="EDIFF">      0.00001000</i>
  <i name="EDIFFG">     -0.00100000</i>
  <i type="int" name="NSW">     1</i>
  <i type="int" name="ISIF">     2</i>
  <i name="ENCUT">    400.00000000</i>
  <i type="logical" name="LREAL"> F  </i>
  <i type="int" name="ISMEAR">     0</i>
  <i name="SIGMA">      0.05000000</i>
  <i type="logical" name="LWAVE"> F  </i>
  <i type="logical" name="LCHARG"> F  </i>
  <v type="int" name="KPOINT_BSE">    -1     0     0     0</v>
  <i type="int" name="NELM">   300</i>
 </incar>
 <structure name="primitive_cell" >
  <crystal>
   <varray name="basis" >
    <v>      12.30000019       0.00000000       0.00000000 </v>
    <v>       6.15000080      10.65211222       0.00000000 </v>
    <v>       0.00000000       0.00000000      20.00000000 </v>
   </varray>
   <i name="volume">   2620.41964732 </i>
   <varray name="rec_basis" >
    <v>       0.08130081      -0.04693905       0.00000000 </v>
    <v>       0.00000000       0.09387809       0.00000000 </v>
    <v>       0.00000000       0.00000000       0.05000000 </v>
   </varray>
  </crystal>
  <varray name="positions" >
   <v>       0.00000000       0.00000000       0.41799748 </v>
   <v>       0.06666667       0.06666660       0.41800609 </v>
   <v>      -0.13333333       0.06666660       0.41800609 </v>
   <v>       0.06666667      -0.13333340       0.41800609 </v>
   <v>      -0.20000000       0.20000000       0.41799748 </v>
   <v>       0.20000000      -0.20000000       0.41799748 </v>
   <v>       0.20000000       0.00000000       0.41799748 </v>
   <v>      -0.20000000       0.00000000       0.41799748 </v>
   <v>       0.00000000       0.20000000       0.41799748 </v>
   <v>       0.00000000      -0.20000000       0.41799748 </v>
   <v>      -0.13333333       0.26666660       0.41800609 </v>
   <v>       0.26666667      -0.13333340       0.41800609 </v>
   <v>      -0.13333333      -0.13333340       0.41800609 </v>
   <v>       0.06666667       0.26666660       0.41800609 </v>
   <v>      -0.33333333       0.26666660       0.41800609 </v>
   <v>       0.26666667       0.06666660       0.41800609 </v>
   <v>      -0.33333333       0.06666660       0.41800609 </v>
   <v>       0.26666667      -0.33333340       0.41800609 </v>
   <v>       0.06666667      -0.33333340       0.41800609 </v>
   <v>      -0.40000000       0.20000000       0.41799748 </v>
   <v>       0.40000000      -0.20000000       0.41799748 </v>
   <v>      -0.20000000       0.40000000       0.41799748 </v>
   <v>       0.20000000      -0.40000000       0.41799748 </v>
   <v>       0.20000000       0.20000000       0.41799748 </v>
   <v>      -0.20000000      -0.20000000       0.41799748 </v>
   <v>      -0.40000000       0.40000000       0.41799748 </v>
   <v>       0.40000000      -0.40000000       0.41799748 </v>
   <v>       0.40000000       0.00000000       0.41799748 </v>
   <v>      -0.40000000       0.00000000       0.41799748 </v>
   <v>       0.00000000       0.40000000       0.41799748 </v>
   <v>       0.00000000      -0.40000000       0.41799748 </v>
   <v>      -0.13333333       0.46666660       0.41800609 </v>
   <v>      -0.33333333       0.46666660       0.41800609 </v>
   <v>       0.46666667      -0.13333340       0.41800609 </v>
   <v>       0.46666667      -0.33333340       0.41800609 </v>
   <v>      -0.33333333      -0.13333340       0.41800609 </v>
   <v>      -0.13333333      -0.33333340       0.41800609 </v>
   <v>       0.26666667       0.26666660       0.41800609 </v>
   <v>       0.46666667       0.26666660       0.41800609 </v>
   <v>       0.26666667       0.46666660       0.41800609 </v>
   <v>       0.06666667       0.46666660       0.41800609 </v>
   <v>       0.46666667       0.46666660       0.41800609 </v>
   <v>       0.46666667       0.06666660       0.41800609 </v>
   <v>       0.40000000       0.19918699       0.41799748 </v>
   <v>       0.40000000       0.40000000       0.41799748 </v>
   <v>      -0.40000000      -0.40000000       0.41799748 </v>
   <v>      -0.40000000      -0.20000000       0.41799748 </v>
   <v>       0.20000000       0.40000000       0.41799748 </v>
   <v>      -0.20000000      -0.40000000       0.41799748 </v>
   <v>       0.40000000       0.40000000       0.46800609 </v>
   <v>      -0.33333333      -0.33333340       0.41800609 </v>
  </varray>
 </structure>
 <varray name="primitive_index" >
  <v type="int" >        1 </v>
  <v type="int" >       26 </v>
  <v type="int" >       30 </v>
  <v type="int" >       46 </v>
  <v type="int" >       10 </v>
  <v type="int" >       22 </v>
  <v type="int" >        2 </v>
  <v type="int" >        5 </v>
  <v type="int" >        6 </v>
  <v type="int" >       21 </v>
  <v type="int" >       35 </v>
  <v type="int" >       47 </v>
  <v type="int" >       50 </v>
  <v type="int" >       31 </v>
  <v type="int" >       34 </v>
  <v type="int" >       27 </v>
  <v type="int" >       29 </v>
  <v type="int" >       42 </v>
  <v type="int" >       41 </v>
  <v type="int" >        9 </v>
  <v type="int" >       23 </v>
  <v type="int" >       15 </v>
  <v type="int" >       17 </v>
  <v type="int" >        7 </v>
  <v type="int" >       25 </v>
  <v type="int" >       14 </v>
  <v type="int" >       18 </v>
  <v type="int" >        3 </v>
  <v type="int" >        4 </v>
  <v type="int" >       11 </v>
  <v type="int" >       16 </v>
  <v type="int" >       40 </v>
  <v type="int" >       39 </v>
  <v type="int" >       48 </v>
  <v type="int" >       43 </v>
  <v type="int" >       49 </v>
  <v type="int" >       45 </v>
  <v type="int" >       32 </v>
  <v type="int" >       33 </v>
  <v type="int" >       37 </v>
  <v type="int" >       36 </v>
  <v type="int" >       38 </v>
  <v type="int" >       28 </v>
  <v type="int" >        8 </v>
  <v type="int" >       13 </v>
  <v type="int" >       19 </v>
  <v type="int" >       24 </v>
  <v type="int" >       12 </v>
  <v type="int" >       20 </v>
  <v type="int" >       51 </v>
  <v type="int" >       44 </v>
 </varray>
 <kpoints>
  <generation param="Gamma">
   <v type="int" name="divisions">       3        3        1 </v>
   <v name="usershift">      0.00000000       0.00000000       0.00000000 </v>
   <v name="genvec1">      0.33333333      -0.00000000       0.00000000 </v>
   <v name="genvec2">      0.00000000       0.33333333       0.00000000 </v>
   <v name="genvec3">      0.00000000       0.00000000       1.00000000 </v>
   <v name="shift">      0.00000000       0.00000000       0.00000000 </v>
  </generation>
  <varray name="kpointlist" >
   <v>       0.00000000       0.00000000       0.00000000 </v>
   <v>       0.33333333       0.00000000       0.00000000 </v>
   <v>       0.00000000       0.33333333       0.00000000 </v>
   <v>       0.33333333       0.33333333       0.00000000 </v>
   <v>      -0.33333333       0.33333333       0.00000000 </v>
  </varray>
  <varray name="weights" >
   <v>       0.11111111 </v>
   <v>       0.22222222 </v>
   <v>       0.22222222 </v>
   <v>       0.22222222 </v>
   <v>       0.22222222 </v>
  </varray>
 </kpoints>
 <parameters>
  <separator name="general" >
   <i type="string" name="SYSTEM"></i>
   <i type="logical" name="LCOMPAT"> F  </i>
  </separator>
  <separator name="electronic" >
   <i type="string" name="PREC">accura</i>
   <i name="ENMAX">    400.00000000</i>
   <i name="ENAUG">    644.87300000</i>
   <i name="EDIFF">      0.00001000</i>
   <i type="int" name="IALGO">    68</i>
   <i type="int" name="IWAVPR">    10</i>
   <i type="int" name="NBANDS">   132</i>
   <i name="NELECT">    206.00000000</i>
   <i type="int" name="TURBO">     0</i>
   <i type="int" name="IRESTART">     0</i>
   <i type="int" name="NREBOOT">     0</i>
   <i type="int" name="NMIN">     0</i>
   <i name="EREF">      0.00000000</i>
   <separator name="electronic smearing" >
    <i type="int" name="ISMEAR">     0</i>
    <i name="SIGMA">      0.05000000</i>
    <i name="KSPACING">      0.50000000</i>
    <i type="logical" name="KGAMMA"> T  </i>
   </separator>
   <separator name="electronic projectors" >
    <i type="logical" name="LREAL"> F  </i>
    <v name="ROPT">      0.00000000      0.00000000</v>
    <i type="int" name="LMAXPAW">  -100</i>
    <i type="int" name="LMAXMIX">     2</i>
    <i type="logical" name="NLSPLINE"> F  </i>
   </separator>
   <separator name="electronic startup" >
    <i type="int" name="ISTART">     1</i>
    <i type="int" name="ICHARG">     1</i>
    <i type="int" name="INIWAV">     1</i>
   </separator>
   <separator name="electronic spin" >
    <i type="int" name="ISPIN">     1</i>
    <i type="logical" name="LNONCOLLINEAR"> F  </i>
    <v name="MAGMOM">      1.00000000      1.00000000      1.00000000      1.00000000      1.00000000      1.00000000      1.00000000      1.00000000      1.00000000      1.00000000      1.00000000      1.00000000      1.00000000      1.00000000      1.00000000      1.00000000      1.00000000      1.00000000      1.00000000      1.00000000
      1.00000000      1.00000000      1.00000000      1.00000000      1.00000000      1.00000000      1.00000000      1.00000000      1.00000000      1.00000000      1.00000000      1.00000000      1.00000000      1.00000000      1.00000000      1.00000000      1.00000000      1.00000000      1.00000000      1.00000000
      1.00000000      1.00000000      1.00000000      1.00000000      1.00000000      1.00000000      1.00000000      1.00000000      1.00000000      1.00000000      1.00000000</v>
    <i name="NUPDOWN">     -1.00000000</i>
    <i type="logical" name="LSORBIT"> F  </i>
    <v name="SAXIS">      0.00000000      0.00000000      1.00000000</v>
    <i type="logical" name="LSPIRAL"> F  </i>
    <v name="QSPIRAL">      0.00000000      0.00000000      0.00000000</v>
    <i type="logical" name="LZEROZ"> F  </i>
   </separator>
   <separator name="electronic exchange-correlation" >
    <i type="logical" name="LASPH"> F  </i>
    <i type="logical" name="LMETAGGA"> F  </i>
   </separator>
   <separator name="electronic convergence" >
    <i type="int" name="NELM">   300</i>
    <i type="int" name="NELMDL">     0</i>
    <i type="int" name="NELMIN">     2</i>
    <i name="ENINI">    400.00000000</i>
    <separator name="electronic convergence detail" >
     <i type="logical" name="LDIAG"> T  </i>
     <i type="logical" name="LSUBROT"> F  </i>
     <i name="WEIMIN">      0.00000000</i>
     <i name="EBREAK">      0.00000002</i>
     <i name="DEPER">      0.30000000</i>
     <i type="int" name="NRMM">     4</i>
     <i name="TIME">      0.40000000</i>
    </separator>
   </separator>
   <separator name="electronic mixer" >
    <i name="AMIX">      0.40000000</i>
    <i name="BMIX">      1.00000000</i>
    <i name="AMIN">      0.10000000</i>
    <i name="AMIX_MAG">      1.60000000</i>
    <i name="BMIX_MAG">      1.00000000</i>
    <separator name="electronic mixer details" >
     <i type="int" name="IMIX">     4</i>
     <i type="logical" name="MIXFIRST"> F  </i>
     <i type="int" name="MAXMIX">   -45</i>
     <i name="WC">    100.00000000</i>
     <i type="int" name="INIMIX">     1</i>
     <i type="int" name="MIXPRE">     1</i>
     <i type="int" name="MREMOVE">     5</i>
    </separator>
   </separator>
   <separator name="electronic dipolcorrection" >
    <i type="logical" name="LDIPOL"> F  </i>
    <i type="logical" name="LMONO"> F  </i>
    <i type="int" name="IDIPOL">     0</i>
    <i name="EPSILON">      1.00000000</i>
    <v name="DIPOL">   -100.00000000   -100.00000000   -100.00000000</v>
    <i name="EFIELD">      0.00000000</i>
   </separator>
  </separator>
  <separator name="grids" >
   <i type="int" name="NGX">    80</i>
   <i type="int" name="NGY">    80</i>
   <i type="int" name="NGZ">   140</i>
   <i type="int" name="NGXF">   160</i>
   <i type="int" name="NGYF">   160</i>
   <i type="int" name="NGZF">   280</i>
   <i type="logical" name="ADDGRID"> T  </i>
  </separator>
  <separator name="ionic" >
   <i type="int" name="NSW">     1</i>
   <i type="int" name="IBRION">    -1</i>
   <i type="int" name="MDALGO">     0</i>
   <i type="int" name="ISIF">     2</i>
   <i name="PSTRESS">      0.00000000</i>
   <i name="EDIFFG">     -0.00100000</i>
   <i type="int" name="NFREE">     0</i>
   <i name="POTIM">      0.50000000</i>
   <i name="SMASS">     -3.00000000</i>
   <i name="SCALEE">      1.00000000</i>
  </separator>
  <separator name="ionic md" >
   <i name="TEBEG">      0.00010000</i>
   <i name="TEEND">      0.00010000</i>
   <i type="int" name="NBLOCK">     1</i>
   <i type="int" name="KBLOCK">     1</i>
   <i type="int" name="NPACO">   256</i>
   <i name="APACO">     16.00000000</i>
  </separator>
  <separator name="symmetry" >
   <i type="int" name="ISYM">     2</i>
   <i name="SYMPREC">      0.00001000</i>
  </separator>
  <separator name="dos" >
   <i type="int" name="LORBIT">     0</i>
   <v name="RWIGS">     -1.00000000     -1.00000000</v>
   <i type="int" name="NEDOS">   301</i>
   <i name="EMIN">     10.00000000</i>
   <i name="EMAX">    -10.00000000</i>
   <i name="EFERMI">      0.00000000</i>
  </separator>
  <separator name="writing" >
   <i type="int" name="NWRITE">     2</i>
   <i type="logical" name="LWAVE"> F  </i>
   <i type="logical" name="LDOWNSAMPLE"> F  </i>
   <i type="logical" name="LCHARG"> F  </i>
   <i type="logical" name="LPARD"> F  </i>
   <i type="logical" name="LVTOT"> F  </i>
   <i type="logical" name="LVHAR"> F  </i>
   <i type="logical" name="LELF"> F  </i>
   <i type="logical" name="LOPTICS"> F  </i>
   <v name="STM">      0.00000000      0.00000000      0.00000000      0.00000000      0.00000000      0.00000000      0.00000000</v>
  </separator>
  <separator name="performance" >
   <i type="int" name="NPAR">     6</i>
   <i type="int" name="NSIM">     4</i>
   <i type="int" name="NBLK">    -1</i>
   <i type="logical" name="LPLANE"> T  </i>
   <i type="logical" name="LSCALAPACK"> T  </i>
   <i type="logical" name="LSCAAWARE"> F  </i>
   <i type="logical" name="LSCALU"> F  </i>
   <i type="logical" name="LASYNC"> F  </i>
   <i type="logical" name="LORBITALREAL"> F  </i>
  </separator>
  <separator name="miscellaneous" >
   <i type="int" name="IDIOT">     3</i>
   <i type="int" name="ISPECIAL">     0</i>
   <i type="logical" name="LMUSIC"> F  </i>
   <v name="POMASS">     12.01100000     16.00000000</v>
   <v name="DARWINR">      0.00000000      0.00000000</v>
   <v name="DARWINV">      1.00000000      1.00000000</v>
   <i type="logical" name="LCORR"> T  </i>
  </separator>
  <i type="logical" name="GGA_COMPAT"> T  </i>
  <i type="logical" name="LBERRY"> F  </i>
  <i type="int" name="ICORELEVEL">     0</i>
  <i type="logical" name="LDAU"> F  </i>
  <i type="int" name="I_CONSTRAINED_M">     0</i>
  <separator name="electronic exchange-correlation" >
   <i type="string" name="GGA">--</i>
   <i type="int" name="VOSKOWN">     0</i>
   <i type="logical" name="LHFCALC"> F  </i>
   <i type="string" name="PRECFOCK"></i>
   <i type="logical" name="LSYMGRAD"> F  </i>
   <i type="logical" name="LHFONE"> F  </i>
   <i type="logical" name="LRHFCALC"> F  </i>
   <i type="logical" name="LTHOMAS"> F  </i>
   <i type="logical" name="LMODELHF"> F  </i>
   <i name="ENCUT4O">     -1.00000000</i>
   <i type="int" name="EXXOEP">     0</i>
   <i type="int" name="FOURORBIT">     0</i>
   <i name="AEXX">      0.00000000</i>
   <i name="HFALPHA">      0.00000000</i>
   <i name="MCALPHA">      0.00000000</i>
   <i name="ALDAX">      1.00000000</i>
   <i name="AGGAX">      1.00000000</i>
   <i name="ALDAC">      1.00000000</i>
   <i name="AGGAC">      1.00000000</i>
   <i type="int" name="NKREDX">     1</i>
   <i type="int" name="NKREDY">     1</i>
   <i type="int" name="NKREDZ">     1</i>
   <i type="logical" name="SHIFTRED"> F  </i>
   <i type="logical" name="ODDONLY"> F  </i>
   <i type="logical" name="EVENONLY"> F  </i>
   <i type="int" name="LMAXFOCK">     0</i>
   <i type="int" name="NMAXFOCKAE">     0</i>
   <i type="logical" name="LFOCKAEDFT"> F  </i>
   <i name="HFSCREEN">      0.00000000</i>
   <i name="HFSCREENC">      0.00000000</i>
   <i type="int" name="NBANDSGWLOW">     0</i>
  </separator>
  <separator name="vdW DFT" >
   <i type="logical" name="LUSE_VDW"> F  </i>
   <i name="Zab_VDW">     -0.84910000</i>
   <i name="PARAM1">      0.12340000</i>
   <i name="PARAM2">      1.00000000</i>
   <i name="PARAM3">      0.00000000</i>
  </separator>
  <separator name="model GW" >
   <i type="int" name="MODEL_GW">     0</i>
   <i name="MODEL_EPS0">     30.82846644</i>
   <i name="MODEL_ALPHA">      1.00000000</i>
  </separator>
  <separator name="linear response parameters" >
   <i type="logical" name="LEPSILON"> F  </i>
   <i type="logical" name="LRPA"> F  </i>
   <i type="logical" name="LNABLA"> F  </i>
   <i type="logical" name="LVEL"> F  </i>
   <i type="int" name="KINTER">     0</i>
   <i name="CSHIFT">      0.10000000</i>
   <i name="OMEGAMAX">     -1.00000000</i>
   <i name="DEG_THRESHOLD">      0.00200000</i>
   <i name="RTIME">     -0.10000000</i>
   <i name="WPLASMAI">      0.00000000</i>
   <v name="DFIELD">      0.00000000      0.00000000      0.00000000</v>
   <v name="WPLASMA">      0.00000000      0.00000000      0.00000000      0.00000000      0.00000000      0.00000000      0.00000000      0.00000000      0.00000000</v>
  </separator>
  <separator name="orbital magnetization" >
   <i type="logical" name="NUCIND"> F  </i>
   <v name="MAGPOS">      0.00000000      0.00000000      0.00000000</v>
   <i type="logical" name="LNICSALL"> T  </i>
   <i type="logical" name="ORBITALMAG"> F  </i>
   <i type="logical" name="LMAGBLOCH"> F  </i>
   <i type="logical" name="LCHIMAG"> F  </i>
   <i type="logical" name="LGAUGE"> T  </i>
   <i type="int" name="MAGATOM">     0</i>
   <v name="MAGDIPOL">      0.00000000      0.00000000      0.00000000</v>
   <v name="AVECCONST">      0.00000000      0.00000000      0.00000000</v>
  </separator>
  <separator name="response functions" >
   <i type="logical" name="LADDER"> F  </i>
   <i type="logical" name="LRPAFORCE"> F  </i>
   <i type="logical" name="LFXC"> F  </i>
   <i type="logical" name="LHARTREE"> T  </i>
   <i type="int" name="IBSE">     0</i>
   <v type="int" name="KPOINT">    -1     0     0     0</v>
   <i type="logical" name="LTCTE"> F  </i>
   <i type="logical" name="LTETE"> F  </i>
   <i type="logical" name="LTRIPLET"> F  </i>
   <i type="logical" name="LFXCEPS"> F  </i>
   <i type="logical" name="LFXHEG"> F  </i>
   <i type="int" name="NATURALO">     2</i>
   <i type="logical" name="L2ORDER"> F  </i>
   <i type="logical" name="LMP2LT"> F  </i>
   <i type="logical" name="LUSEW"> F  </i>
   <i name="ENCUTGW">     -2.00000000</i>
   <i name="ENCUTGWSOFT">     -2.00000000</i>
   <i name="ENCUTLF">     -1.00000000</i>
   <i type="int" name="LMAXMP2">    -1</i>
   <i name="SCISSOR">      0.00000000</i>
   <i type="int" name="NOMEGA">     0</i>
   <i type="int" name="NOMEGAR">     0</i>
   <i type="int" name="NBANDSGW">    -1</i>
   <i type="int" name="NBANDSO">    -1</i>
   <i type="int" name="NBANDSV">    -1</i>
   <i type="int" name="NELM">   300</i>
   <i type="int" name="NELMHF">     1</i>
   <i type="int" name="DIM">     3</i>
   <i type="int" name="ANTIRES">     0</i>
   <i name="OMEGAMAX">    -30.00000000</i>
   <i name="OMEGAMIN">    -30.00000000</i>
   <i name="OMEGATL">   -200.00000000</i>
   <i type="int" name="OMEGAGRID">   140</i>
   <i name="CSHIFT">     -0.10000000</i>
   <i type="logical" name="SELFENERGY"> F  </i>
   <i type="logical" name="LSPECTRAL"> F  </i>
   <i type="logical" name="LSPECTRALGW"> F  </i>
   <i type="logical" name="LSINGLES"> F  </i>
   <i type="logical" name="LFERMIGW"> F  </i>
   <i type="logical" name="ODDONLYGW"> F  </i>
   <i type="logical" name="EVENONLYGW"> F  </i>
   <i type="int" name="NKREDLFX">     1</i>
   <i type="int" name="NKREDLFY">     1</i>
   <i type="int" name="NKREDLFZ">     1</i>
   <i type="int" name="MAXMEM">  2800</i>
   <i type="int" name="TELESCOPE">     0</i>
   <i type="int" name="TAUPAR">     1</i>
   <i type="int" name="OMEGAPAR">    -1</i>
   <i name="LAMBDA">      1.00000000</i>
  </separator>
  <separator name="External order field" >
   <i name="OFIELD_KAPPA">      0.00000000</i>
   <v name="OFIELD_K">      0.00000000      0.00000000      0.00000000</v>
   <i name="OFIELD_Q6_NEAR">      0.00000000</i>
   <i name="OFIELD_Q6_FAR">      0.00000000</i>
   <i name="OFIELD_A">      0.00000000</i>
  </separator>
 </parameters>
 <atominfo>
  <atoms>      51 </atoms>
  <types>       2 </types>
  <array name="atoms" >
   <dimension dim="1">ion</dimension>
   <field type="string">element</field>
   <field type="int">atomtype</field>
   <set>
    <rc><c>C </c><c>   1</c></rc>
    <rc><c>C </c><c>   1</c></rc>
    <rc><c>C </c><c>   1</c></rc>
    <rc><c>C </c><c>   1</c></rc>
    <rc><c>C </c><c>   1</c></rc>
    <rc><c>C </c><c>   1</c></rc>
    <rc><c>C </c><c>   1</c></rc>
    <rc><c>C </c><c>   1</c></rc>
    <rc><c>C </c><c>   1</c></rc>
    <rc><c>C </c><c>   1</c></rc>
    <rc><c>C </c><c>   1</c></rc>
    <rc><c>C </c><c>   1</c></rc>
    <rc><c>C </c><c>   1</c></rc>
    <rc><c>C </c><c>   1</c></rc>
    <rc><c>C </c><c>   1</c></rc>
    <rc><c>C </c><c>   1</c></rc>
    <rc><c>C </c><c>   1</c></rc>
    <rc><c>C </c><c>   1</c></rc>
    <rc><c>C </c><c>   1</c></rc>
    <rc><c>C </c><c>   1</c></rc>
    <rc><c>C </c><c>   1</c></rc>
    <rc><c>C </c><c>   1</c></rc>
    <rc><c>C </c><c>   1</c></rc>
    <rc><c>C </c><c>   1</c></rc>
    <rc><c>C </c><c>   1</c></rc>
    <rc><c>C </c><c>   1</c></rc>
    <rc><c>C </c><c>   1</c></rc>
    <rc><c>C </c><c>   1</c></rc>
    <rc><c>C </c><c>   1</c></rc>
    <rc><c>C </c><c>   1</c></rc>
    <rc><c>C </c><c>   1</c></rc>
    <rc><c>C </c><c>   1</c></rc>
    <rc><c>C </c><c>   1</c></rc>
    <rc><c>C </c><c>   1</c></rc>
    <rc><c>C </c><c>   1</c></rc>
    <rc><c>C </c><c>   1</c></rc>
    <rc><c>C </c><c>   1</c></rc>
    <rc><c>C </c><c>   1</c></rc>
    <rc><c>C </c><c>   1</c></rc>
    <rc><c>C </c><c>   1</c></rc>
    <rc><c>C </c><c>   1</c></rc>
    <rc><c>C </c><c>   1</c></rc>
    <rc><c>C </c><c>   1</c></rc>
    <rc><c>C </c><c>   1</c></rc>
    <rc><c>C </c><c>   1</c></rc>
    <rc><c>C </c><c>   1</c></rc>
    <rc><c>C </c><c>   1</c></rc>
    <rc><c>C </c><c>   1</c></rc>
    <rc><c>C </c><c>   1</c></rc>
    <rc><c>C </c><c>   1</c></rc>
    <rc><c>O </c><c>   2</c></rc>
   </set>
  </array>
  <array name="atomtypes" >
   <dimension dim="1">type</dimension>
   <field type="int">atomspertype</field>
   <field type="string">element</field>
   <field>mass</field>
   <field>valence</field>
   <field type="string">pseudopotential</field>
   <set>
    <rc><c>  50</c><c>C </c><c>     12.01100000</c><c>      4.00000000</c><c>  PAW_PBE C 08Apr2002                   </c></rc>
    <rc><c>   1</c><c>O </c><c>     16.00000000</c><c>      6.00000000</c><c>  PAW_PBE O 08Apr2002                   </c></rc>
   </set>
  </array>
 </atominfo>
 <structure name="initialpos" >
  <crystal>
   <varray name="basis" >
    <v>      12.30000019       0.00000000       0.00000000 </v>
    <v>       6.15000080      10.65211222       0.00000000 </v>
    <v>       0.00000000       0.00000000      20.00000000 </v>
   </varray>
   <i name="volume">   2620.41964732 </i>
   <varray name="rec_basis" >
    <v>       0.08130081      -0.04693905       0.00000000 </v>
    <v>       0.00000000       0.09387809       0.00000000 </v>
    <v>       0.00000000       0.00000000       0.05000000 </v>
   </varray>
  </crystal>
  <varray name="positions" >
   <v>       0.00000000       0.00000000       0.41799748 </v>
   <v>       0.20000000       0.00000000       0.41799748 </v>
   <v>       0.40000000       0.00000000       0.41799748 </v>
   <v>       0.60000000       0.00000000       0.41799748 </v>
   <v>       0.80000000       0.00000000       0.41799748 </v>
   <v>       0.00000000       0.20000000       0.41799748 </v>
   <v>       0.20000000       0.20000000       0.41799748 </v>
   <v>       0.40000000       0.19918699       0.41799748 </v>
   <v>       0.60000000       0.20000000       0.41799748 </v>
   <v>       0.80000000       0.20000000       0.41799748 </v>
   <v>       0.00000000       0.40000000       0.41799748 </v>
   <v>       0.20000000       0.40000000       0.41799748 </v>
   <v>       0.40000000       0.40000000       0.41799748 </v>
   <v>       0.60000000       0.40000000       0.41799748 </v>
   <v>       0.80000000       0.40000000       0.41799748 </v>
   <v>       0.00000000       0.60000000       0.41799748 </v>
   <v>       0.20000000       0.60000000       0.41799748 </v>
   <v>       0.40000000       0.60000000       0.41799748 </v>
   <v>       0.60000000       0.60000000       0.41799748 </v>
   <v>       0.80000000       0.60000000       0.41799748 </v>
   <v>       0.00000000       0.80000000       0.41799748 </v>
   <v>       0.20000000       0.80000000       0.41799748 </v>
   <v>       0.40000000       0.80000000       0.41799748 </v>
   <v>       0.60000000       0.80000000       0.41799748 </v>
   <v>       0.80000000       0.80000000       0.41799748 </v>
   <v>       0.06666667       0.06666660       0.41800609 </v>
   <v>       0.26666667       0.06666660       0.41800609 </v>
   <v>       0.46666667       0.06666660       0.41800609 </v>
   <v>       0.66666667       0.06666660       0.41800609 </v>
   <v>       0.86666667       0.06666660       0.41800609 </v>
   <v>       0.06666667       0.26666660       0.41800609 </v>
   <v>       0.26666667       0.26666660       0.41800609 </v>
   <v>       0.46666667       0.26666660       0.41800609 </v>
   <v>       0.66666667       0.26666660       0.41800609 </v>
   <v>       0.86666667       0.26666660       0.41800609 </v>
   <v>       0.06666667       0.46666660       0.41800609 </v>
   <v>       0.26666667       0.46666660       0.41800609 </v>
   <v>       0.46666667       0.46666660       0.41800609 </v>
   <v>       0.66666667       0.46666660       0.41800609 </v>
   <v>       0.86666667       0.46666660       0.41800609 </v>
   <v>       0.06666667       0.66666660       0.41800609 </v>
   <v>       0.26666667       0.66666660       0.41800609 </v>
   <v>       0.46666667       0.66666660       0.41800609 </v>
   <v>       0.66666667       0.66666660       0.41800609 </v>
   <v>       0.86666667       0.66666660       0.41800609 </v>
   <v>       0.06666667       0.86666660       0.41800609 </v>
   <v>       0.26666667       0.86666660       0.41800609 </v>
   <v>       0.46666667       0.86666660       0.41800609 </v>
   <v>       0.66666667       0.86666660       0.41800609 </v>
   <v>       0.86666667       0.86666660       0.41800609 </v>
   <v>       0.40000000       0.40000000       0.46800609 </v>
  </varray>
  <varray name="velocities" >
   <v>       0.00000000       0.00000000       0.00000000 </v>
   <v>       0.00000000       0.00000000       0.00000000 </v>
   <v>       0.00000000       0.00000000       0.00000000 </v>
   <v>       0.00000000       0.00000000       0.00000000 </v>
   <v>       0.00000000       0.00000000       0.00000000 </v>
   <v>       0.00000000       0.00000000       0.00000000 </v>
   <v>       0.00000000       0.00000000       0.00000000 </v>
   <v>       0.00000000       0.00000000       0.00000000 </v>
   <v>       0.00000000       0.00000000       0.00000000 </v>
   <v>       0.00000000       0.00000000       0.00000000 </v>
   <v>       0.00000000       0.00000000       0.00000000 </v>
   <v>       0.00000000       0.00000000       0.00000000 </v>
   <v>       0.00000000       0.00000000       0.00000000 </v>
   <v>       0.00000000       0.00000000       0.00000000 </v>
   <v>       0.00000000       0.00000000       0.00000000 </v>
   <v>       0.00000000       0.00000000       0.00000000 </v>
   <v>       0.00000000       0.00000000       0.00000000 </v>
   <v>       0.00000000       0.00000000       0.00000000 </v>
   <v>       0.00000000       0.00000000       0.00000000 </v>
   <v>       0.00000000       0.00000000       0.00000000 </v>
   <v>       0.00000000       0.00000000       0.00000000 </v>
   <v>       0.00000000       0.00000000       0.00000000 </v>
   <v>       0.00000000       0.00000000       0.00000000 </v>
   <v>       0.00000000       0.00000000       0.00000000 </v>
   <v>       0.00000000       0.00000000       0.00000000 </v>
   <v>       0.00000000       0.00000000       0.00000000 </v>
   <v>       0.00000000       0.00000000       0.00000000 </v>
   <v>       0.00000000       0.00000000       0.00000000 </v>
   <v>       0.00000000       0.00000000       0.00000000 </v>
   <v>       0.00000000       0.00000000       0.00000000 </v>
   <v>       0.00000000       0.00000000       0.00000000 </v>
   <v>       0.00000000       0.00000000       0.00000000 </v>
   <v>       0.00000000       0.00000000       0.00000000 </v>
   <v>       0.00000000       0.00000000       0.00000000 </v>
   <v>       0.00000000       0.00000000       0.00000000 </v>
   <v>       0.00000000       0.00000000       0.00000000 </v>
   <v>       0.00000000       0.00000000       0.00000000 </v>
   <v>       0.00000000       0.00000000       0.00000000 </v>
   <v>       0.00000000       0.00000000       0.00000000 </v>
   <v>       0.00000000       0.00000000       0.00000000 </v>
   <v>       0.00000000       0.00000000       0.00000000 </v>
   <v>       0.00000000       0.00000000       0.00000000 </v>
   <v>       0.00000000       0.00000000       0.00000000 </v>
   <v>       0.00000000       0.00000000       0.00000000 </v>
   <v>       0.00000000       0.00000000       0.00000000 </v>
   <v>       0.00000000       0.00000000       0.00000000 </v>
   <v>       0.00000000       0.00000000       0.00000000 </v>
   <v>       0.00000000       0.00000000       0.00000000 </v>
   <v>       0.00000000       0.00000000       0.00000000 </v>
   <v>       0.00000000       0.00000000       0.00000000 </v>
   <v>       0.00000000       0.00000000       0.00000000 </v>
  </varray>
 </structure>
 <calculation>
  <scstep>
   <time name="dav">    4.12    4.13</time>
   <time name="total">    4.72    4.72</time>
   <energy>
    <i name="alphaZ">     82.54348252 </i>
    <i name="ewald">  34516.12418382 </i>
    <i name="hartreedc"> -41034.44092549 </i>
    <i name="XCdc">    721.37958952 </i>
    <i name="pawpsdc">  22781.19595426 </i>
    <i name="pawaedc"> -22817.52509957 </i>
    <i name="eentropy">     -0.00049799 </i>
    <i name="bandstr">  -2491.19605889 </i>
    <i name="atom">   7788.62438962 </i>
    <i name="e_fr_energy">   -453.29498220 </i>
    <i name="e_wo_entrp">   -453.29448421 </i>
    <i name="e_0_energy">   -453.29473320 </i>
   </energy>
  </scstep>
  <scstep>
   <time name="diag">    0.88    0.88</time>
   <time name="diis">    3.75    3.76</time>
   <time name="orth">    0.04    0.04</time>
   <time name="total">    5.25    5.26</time>
   <energy>
    <i name="e_fr_energy">   -454.28260758 </i>
    <i name="e_wo_entrp">   -454.28252181 </i>
    <i name="e_0_energy">   -454.28256470 </i>
   </energy>
  </scstep>
  <scstep>
   <time name="diag">    0.88    0.88</time>
   <time name="diis">    4.09    4.09</time>
   <time name="orth">    0.04    0.04</time>
   <time name="total">    5.58    5.59</time>
   <energy>
    <i name="e_fr_energy">   -454.33477747 </i>
    <i name="e_wo_entrp">   -454.33465959 </i>
    <i name="e_0_energy">   -454.33471853 </i>
   </energy>
  </scstep>
  <scstep>
   <time name="diag">    0.88    0.88</time>
   <time name="diis">    4.13    4.13</time>
   <time name="orth">    0.04    0.04</time>
   <time name="total">    5.62    5.63</time>
   <energy>
    <i name="e_fr_energy">   -454.33865795 </i>
    <i name="e_wo_entrp">   -454.33855616 </i>
    <i name="e_0_energy">   -454.33860706 </i>
   </energy>
  </scstep>
  <scstep>
   <time name="diag">    0.88    0.88</time>
   <time name="diis">    3.97    3.97</time>
   <time name="orth">    0.04    0.04</time>
   <time name="total">    5.47    5.47</time>
   <energy>
    <i name="e_fr_energy">   -454.33875931 </i>
    <i name="e_wo_entrp">   -454.33865443 </i>
    <i name="e_0_energy">   -454.33870687 </i>
   </energy>
  </scstep>
  <scstep>
   <time name="diag">    0.88    0.88</time>
   <time name="diis">    3.97    3.97</time>
   <time name="orth">    0.04    0.04</time>
   <time name="total">    5.46    5.46</time>
   <energy>
    <i name="e_fr_energy">   -454.33878394 </i>
    <i name="e_wo_entrp">   -454.33867708 </i>
    <i name="e_0_energy">   -454.33873051 </i>
   </energy>
  </scstep>
  <scstep>
   <time name="diag">    0.89    0.89</time>
   <time name="diis">    2.92    2.92</time>
   <time name="orth">    0.04    0.04</time>
   <time name="total">    4.03    4.03</time>
   <energy>
    <i name="alphaZ">     82.54348252 </i>
    <i name="ewald">  34516.12418382 </i>
    <i name="hartreedc"> -41034.50086313 </i>
    <i name="XCdc">    721.38530435 </i>
    <i name="pawpsdc">  22777.04177756 </i>
    <i name="pawaedc"> -22813.37385268 </i>
    <i name="eentropy">     -0.00010778 </i>
    <i name="bandstr">  -2492.18310491 </i>
    <i name="atom">   7788.62438962 </i>
    <i name="e_fr_energy">   -454.33879065 </i>
    <i name="e_wo_entrp">   -454.33868287 </i>
    <i name="e_0_energy">   -454.33873676 </i>
   </energy>
  </scstep>
  <structure>
   <crystal>
    <varray name="basis" >
     <v>      12.30000019       0.00000000       0.00000000 </v>
     <v>       6.15000080      10.65211222       0.00000000 </v>
     <v>       0.00000000       0.00000000      20.00000000 </v>
    </varray>
    <i name="volume">   2620.41964732 </i>
    <varray name="rec_basis" >
     <v>       0.08130081      -0.04693905       0.00000000 </v>
     <v>       0.00000000       0.09387809       0.00000000 </v>
     <v>       0.00000000       0.00000000       0.05000000 </v>
    </varray>
   </crystal>
   <varray name="positions" >
    <v>       0.00000000       0.00000000       0.41799748 </v>
    <v>       0.20000000       0.00000000       0.41799748 </v>
    <v>       0.40000000       0.00000000       0.41799748 </v>
    <v>       0.60000000       0.00000000       0.41799748 </v>
    <v>       0.80000000       0.00000000       0.41799748 </v>
    <v>       0.00000000       0.20000000       0.41799748 </v>
    <v>       0.20000000       0.20000000       0.41799748 </v>
    <v>       0.40000000       0.19918699       0.41799748 </v>
    <v>       0.60000000       0.20000000       0.41799748 </v>
    <v>       0.80000000       0.20000000       0.41799748 </v>
    <v>       0.00000000       0.40000000       0.41799748 </v>
    <v>       0.20000000       0.40000000       0.41799748 </v>
    <v>       0.40000000       0.40000000       0.41799748 </v>
    <v>       0.60000000       0.40000000       0.41799748 </v>
    <v>       0.80000000       0.40000000       0.41799748 </v>
    <v>       0.00000000       0.60000000       0.41799748 </v>
    <v>       0.20000000       0.60000000       0.41799748 </v>
    <v>       0.40000000       0.60000000       0.41799748 </v>
    <v>       0.60000000       0.60000000       0.41799748 </v>
    <v>       0.80000000       0.60000000       0.41799748 </v>
    <v>       0.00000000       0.80000000       0.41799748 </v>
    <v>       0.20000000       0.80000000       0.41799748 </v>
    <v>       0.40000000       0.80000000       0.41799748 </v>
    <v>       0.60000000       0.80000000       0.41799748 </v>
    <v>       0.80000000       0.80000000       0.41799748 </v>
    <v>       0.06666667       0.06666660       0.41800609 </v>
    <v>       0.26666667       0.06666660       0.41800609 </v>
    <v>       0.46666667       0.06666660       0.41800609 </v>
    <v>       0.66666667       0.06666660       0.41800609 </v>
    <v>       0.86666667       0.06666660       0.41800609 </v>
    <v>       0.06666667       0.26666660       0.41800609 </v>
    <v>       0.26666667       0.26666660       0.41800609 </v>
    <v>       0.46666667       0.26666660       0.41800609 </v>
    <v>       0.66666667       0.26666660       0.41800609 </v>
    <v>       0.86666667       0.26666660       0.41800609 </v>
    <v>       0.06666667       0.46666660       0.41800609 </v>
    <v>       0.26666667       0.46666660       0.41800609 </v>
    <v>       0.46666667       0.46666660       0.41800609 </v>
    <v>       0.66666667       0.46666660       0.41800609 </v>
    <v>       0.86666667       0.46666660       0.41800609 </v>
    <v>       0.06666667       0.66666660       0.41800609 </v>
    <v>       0.26666667       0.66666660       0.41800609 </v>
    <v>       0.46666667       0.66666660       0.41800609 </v>
    <v>       0.66666667       0.66666660       0.41800609 </v>
    <v>       0.86666667       0.66666660       0.41800609 </v>
    <v>       0.06666667       0.86666660       0.41800609 </v>
    <v>       0.26666667       0.86666660       0.41800609 </v>
    <v>       0.46666667       0.86666660       0.41800609 </v>
    <v>       0.66666667       0.86666660       0.41800609 </v>
    <v>       0.86666667       0.86666660       0.41800609 </v>
    <v>       0.40000000       0.40000000       0.46800609 </v>
   </varray>
  </structure>
  <varray name="forces" >
   <v>      -0.04967093      -0.02773507       0.00935349 </v>
   <v>       0.04115837      -0.03194819       0.00949486 </v>
   <v>      -0.18724987      -0.02481104      -0.02611391 </v>
   <v>       0.03643298      -0.22276605      -0.02570918 </v>
   <v>       0.16040126       0.01117163      -0.02642341 </v>
   <v>       0.00088838       0.05700341       0.00926224 </v>
   <v>       0.40404845       0.26542163       0.00012116 </v>
   <v>       0.37807747       0.33815587       0.16858381 </v>
   <v>      -0.10672850      -0.18673642       0.16736327 </v>
   <v>      -0.42876239       0.25183435       0.00024238 </v>
   <v>      -0.06473688      -0.14256248      -0.02575387 </v>
   <v>      -0.08837283       0.17922087       0.16302391 </v>
   <v>      -0.02516155       0.01577648     -48.17703265 </v>
   <v>       0.12884584       0.18572774       0.16514425 </v>
   <v>       0.06610544      -0.14540198      -0.02597164 </v>
   <v>      -0.17767132       0.10055343      -0.02667862 </v>
   <v>      -0.22636207       0.01865116       0.16469166 </v>
   <v>       0.22555711       0.01580552       0.16377854 </v>
   <v>       0.17858793       0.10249998      -0.02703245 </v>
   <v>       0.00322512      -0.01491057       0.01781526 </v>
   <v>       0.09384645       0.12947987      -0.02624182 </v>
   <v>      -0.00230258      -0.49820520      -0.00006946 </v>
   <v>      -0.09160972       0.12966168      -0.02599049 </v>
   <v>      -0.01318149      -0.00190764       0.01783300 </v>
   <v>       0.01281989       0.00663584       0.01746134 </v>
   <v>       0.00295764      -0.00152982      -0.00602029 </v>
   <v>       0.11093753      -0.22036154       0.01023182 </v>
   <v>       0.14307744       0.02416822       0.25035201 </v>
   <v>      -0.20767561       0.23715578       0.25721663 </v>
   <v>      -0.09593318      -0.21970935       0.01009676 </v>
   <v>      -0.14414039       0.18587281       0.00983523 </v>
   <v>      -0.48262907      -0.35006988      -0.35085499 </v>
   <v>      -0.15468974      -5.20792059      -4.31727039 </v>
   <v>       0.44605488      -0.25708544      -0.35649925 </v>
   <v>       0.13766769       0.19258568       0.01008152 </v>
   <v>       0.30552011       0.04045174       0.25683336 </v>
   <v>      -4.41071349       2.53878990      -4.35600083 </v>
   <v>       4.40548335       2.53683097      -4.35893126 </v>
   <v>      -0.31217842       0.04386569       0.25711434 </v>
   <v>       0.00012080       0.08408956      -0.02207267 </v>
   <v>       0.12060315      -0.29118915       0.25670548 </v>
   <v>       0.00019221       0.51194181      -0.35430725 </v>
   <v>      -0.11856727      -0.29355472       0.25801608 </v>
   <v>      -0.08306504      -0.03973226      -0.02661475 </v>
   <v>       0.07903137      -0.04739455      -0.02650871 </v>
   <v>      -0.23790939       0.02395875       0.01004098 </v>
   <v>       0.23840608       0.02831289       0.01003978 </v>
   <v>       0.06661773      -0.03592110      -0.02204774 </v>
   <v>       0.00107798       0.10662559      -0.02514087 </v>
   <v>      -0.07294493      -0.03926899      -0.02192551 </v>
   <v>      -0.00548600      -0.06152682      59.98647886 </v>
  </varray>
  <varray name="stress" >
   <v>       9.46007303      -0.04109251      -0.00360242 </v>
   <v>      -0.04109250       9.56281127      -0.03729386 </v>
   <v>      -0.00360242      -0.03729386      31.89927458 </v>
  </varray>
  <energy>
   <i name="e_fr_energy">   -454.33879065 </i>
   <i name="e_wo_entrp">   -454.33873676 </i>
   <i name="e_0_energy">     -0.00010778 </i>
  </energy>
  <time name="totalsc">   42.27   42.31</time>
  <eigenvalues>
   <array>
    <dimension dim="1">band</dimension>
    <dimension dim="2">kpoint</dimension>
    <dimension dim="3">spin</dimension>
    <field>eigene</field>
    <field>occ</field>
    <set>
     <set comment="spin 1">
      <set comment="kpoint 1">
       <r>  -31.7428    1.0000 </r>
       <r>  -22.2713    1.0000 </r>
       <r>  -21.5039    1.0000 </r>
       <r>  -21.5023    1.0000 </r>
       <r>  -21.3961    1.0000 </r>
       <r>  -21.3938    1.0000 </r>
       <r>  -21.3934    1.0000 </r>
       <r>  -20.8722    1.0000 </r>
       <r>  -19.8759    1.0000 </r>
       <r>  -19.8686    1.0000 </r>
       <r>  -19.5504    1.0000 </r>
       <r>  -19.5489    1.0000 </r>
       <r>  -19.5418    1.0000 </r>
       <r>  -19.1895    1.0000 </r>
       <r>  -18.9014    1.0000 </r>
       <r>  -18.8990    1.0000 </r>
       <r>  -18.6470    1.0000 </r>
       <r>  -18.6441    1.0000 </r>
       <r>  -18.6419    1.0000 </r>
       <r>  -17.8809    1.0000 </r>
       <r>  -17.0227    1.0000 </r>
       <r>  -17.0213    1.0000 </r>
       <r>  -16.4807    1.0000 </r>
       <r>  -16.4606    1.0000 </r>
       <r>  -16.4575    1.0000 </r>
       <r>  -16.0480    1.0000 </r>
       <r>  -15.9977    1.0000 </r>
       <r>  -15.9931    1.0000 </r>
       <r>  -15.5000    1.0000 </r>
       <r>  -15.4971    1.0000 </r>
       <r>  -15.4916    1.0000 </r>
       <r>  -15.0917    1.0000 </r>
       <r>  -14.6304    1.0000 </r>
       <r>  -14.6289    1.0000 </r>
       <r>  -14.1511    1.0000 </r>
       <r>  -14.1451    1.0000 </r>
       <r>  -14.1406    1.0000 </r>
       <r>  -13.9651    1.0000 </r>
       <r>  -12.9911    1.0000 </r>
       <r>  -12.9891    1.0000 </r>
       <r>  -12.0310    1.0000 </r>
       <r>  -11.7688    1.0000 </r>
       <r>  -11.7644    1.0000 </r>
       <r>  -11.7552    1.0000 </r>
       <r>  -11.6917    1.0000 </r>
       <r>  -11.6875    1.0000 </r>
       <r>  -11.6548    1.0000 </r>
       <r>  -11.6511    1.0000 </r>
       <r>  -11.6485    1.0000 </r>
       <r>  -11.6471    1.0000 </r>
       <r>  -10.8021    1.0000 </r>
       <r>  -10.8017    1.0000 </r>
       <r>  -10.4279    1.0000 </r>
       <r>  -10.3345    1.0000 </r>
       <r>  -10.2909    1.0000 </r>
       <r>  -10.2899    1.0000 </r>
       <r>  -10.2696    1.0000 </r>
       <r>  -10.0776    1.0000 </r>
       <r>   -9.6862    1.0000 </r>
       <r>   -9.6827    1.0000 </r>
       <r>   -9.3270    1.0000 </r>
       <r>   -9.3248    1.0000 </r>
       <r>   -9.2999    1.0000 </r>
       <r>   -9.2813    1.0000 </r>
       <r>   -9.2791    1.0000 </r>
       <r>   -9.0433    1.0000 </r>
       <r>   -9.0040    1.0000 </r>
       <r>   -8.9965    1.0000 </r>
       <r>   -8.9536    1.0000 </r>
       <r>   -8.9413    1.0000 </r>
       <r>   -8.9399    1.0000 </r>
       <r>   -8.9351    1.0000 </r>
       <r>   -8.9239    1.0000 </r>
       <r>   -8.9178    1.0000 </r>
       <r>   -8.8944    1.0000 </r>
       <r>   -8.4378    1.0000 </r>
       <r>   -7.8020    1.0000 </r>
       <r>   -7.7987    1.0000 </r>
       <r>   -7.3243    1.0000 </r>
       <r>   -7.3189    1.0000 </r>
       <r>   -7.3126    1.0000 </r>
       <r>   -7.3002    1.0000 </r>
       <r>   -7.2989    1.0000 </r>
       <r>   -7.2945    1.0000 </r>
       <r>   -7.1627    1.0000 </r>
       <r>   -7.1601    1.0000 </r>
       <r>   -7.1568    1.0000 </r>
       <r>   -6.7501    1.0000 </r>
       <r>   -6.5089    1.0000 </r>
       <r>   -6.5050    1.0000 </r>
       <r>   -6.2671    1.0000 </r>
       <r>   -6.2492    1.0000 </r>
       <r>   -6.2461    1.0000 </r>
       <r>   -5.9253    1.0000 </r>
       <r>   -5.9174    1.0000 </r>
       <r>   -5.1927    1.0000 </r>
       <r>   -4.7670    1.0000 </r>
       <r>   -4.7631    1.0000 </r>
       <r>   -4.2746    1.0000 </r>
       <r>   -4.2670    1.0000 </r>
       <r>   -4.2658    1.0000 </r>
       <r>   -3.2162    1.0000 </r>
       <r>   -3.2135    1.0000 </r>
       <r>   -2.9151    0.0020 </r>
       <r>   -1.4608    0.0000 </r>
       <r>   -1.4568    0.0000 </r>
       <r>   -1.4536    0.0000 </r>
       <r>   -0.9934    0.0000 </r>
       <r>   -0.9887    0.0000 </r>
       <r>   -0.5449    0.0000 </r>
       <r>    0.4163    0.0000 </r>
       <r>    0.4214    0.0000 </r>
       <r>    0.4266    0.0000 </r>
       <r>    0.5617    0.0000 </r>
       <r>    0.8385    0.0000 </r>
       <r>    0.8474    0.0000 </r>
       <r>    1.2911    0.0000 </r>
       <r>    1.3391    0.0000 </r>
       <r>    1.6817    0.0000 </r>
       <r>    1.8015    0.0000 </r>
       <r>    1.8024    0.0000 </r>
       <r>    1.8027    0.0000 </r>
       <r>    1.8254    0.0000 </r>
       <r>    1.8266    0.0000 </r>
       <r>    2.0310    0.0000 </r>
       <r>    2.1763    0.0000 </r>
       <r>    2.1788    0.0000 </r>
       <r>    2.1842    0.0000 </r>
       <r>    2.3412    0.0000 </r>
       <r>    2.3475    0.0000 </r>
       <r>    2.6130    0.0000 </r>
       <r>    2.6598    0.0000 </r>
      </set>
      <set comment="kpoint 2">
       <r>  -31.7429    1.0000 </r>
       <r>  -22.1890    1.0000 </r>
       <r>  -21.8702    1.0000 </r>
       <r>  -21.6615    1.0000 </r>
       <r>  -21.4538    1.0000 </r>
       <r>  -21.0344    1.0000 </r>
       <r>  -20.8959    1.0000 </r>
       <r>  -20.7279    1.0000 </r>
       <r>  -20.4190    1.0000 </r>
       <r>  -20.1600    1.0000 </r>
       <r>  -19.7884    1.0000 </r>
       <r>  -19.6950    1.0000 </r>
       <r>  -19.3257    1.0000 </r>
       <r>  -19.2418    1.0000 </r>
       <r>  -19.0630    1.0000 </r>
       <r>  -18.5933    1.0000 </r>
       <r>  -18.4557    1.0000 </r>
       <r>  -18.1206    1.0000 </r>
       <r>  -18.0637    1.0000 </r>
       <r>  -17.5938    1.0000 </r>
       <r>  -17.4962    1.0000 </r>
       <r>  -17.2984    1.0000 </r>
       <r>  -17.2786    1.0000 </r>
       <r>  -16.8498    1.0000 </r>
       <r>  -16.6631    1.0000 </r>
       <r>  -16.1755    1.0000 </r>
       <r>  -15.9780    1.0000 </r>
       <r>  -15.8481    1.0000 </r>
       <r>  -15.2987    1.0000 </r>
       <r>  -15.1674    1.0000 </r>
       <r>  -15.1339    1.0000 </r>
       <r>  -14.8840    1.0000 </r>
       <r>  -14.7824    1.0000 </r>
       <r>  -14.4788    1.0000 </r>
       <r>  -14.4573    1.0000 </r>
       <r>  -13.7662    1.0000 </r>
       <r>  -13.7585    1.0000 </r>
       <r>  -13.1944    1.0000 </r>
       <r>  -13.0908    1.0000 </r>
       <r>  -12.9328    1.0000 </r>
       <r>  -12.9033    1.0000 </r>
       <r>  -12.5843    1.0000 </r>
       <r>  -12.5502    1.0000 </r>
       <r>  -12.3881    1.0000 </r>
       <r>  -12.0235    1.0000 </r>
       <r>  -11.6632    1.0000 </r>
       <r>  -11.4467    1.0000 </r>
       <r>  -11.2963    1.0000 </r>
       <r>  -11.1234    1.0000 </r>
       <r>  -10.9130    1.0000 </r>
       <r>  -10.8498    1.0000 </r>
       <r>  -10.5847    1.0000 </r>
       <r>  -10.5299    1.0000 </r>
       <r>  -10.2853    1.0000 </r>
       <r>  -10.2370    1.0000 </r>
       <r>  -10.1610    1.0000 </r>
       <r>  -10.0487    1.0000 </r>
       <r>   -9.8540    1.0000 </r>
       <r>   -9.8207    1.0000 </r>
       <r>   -9.6559    1.0000 </r>
       <r>   -9.6068    1.0000 </r>
       <r>   -9.5601    1.0000 </r>
       <r>   -9.5267    1.0000 </r>
       <r>   -9.3691    1.0000 </r>
       <r>   -9.3404    1.0000 </r>
       <r>   -9.2593    1.0000 </r>
       <r>   -9.1765    1.0000 </r>
       <r>   -9.1001    1.0000 </r>
       <r>   -9.0814    1.0000 </r>
       <r>   -8.8644    1.0000 </r>
       <r>   -8.7119    1.0000 </r>
       <r>   -8.6639    1.0000 </r>
       <r>   -8.5051    1.0000 </r>
       <r>   -8.4026    1.0000 </r>
       <r>   -8.2885    1.0000 </r>
       <r>   -8.1330    1.0000 </r>
       <r>   -8.0933    1.0000 </r>
       <r>   -8.0664    1.0000 </r>
       <r>   -7.9700    1.0000 </r>
       <r>   -7.8066    1.0000 </r>
       <r>   -7.6180    1.0000 </r>
       <r>   -7.3620    1.0000 </r>
       <r>   -7.3342    1.0000 </r>
       <r>   -7.2660    1.0000 </r>
       <r>   -7.1951    1.0000 </r>
       <r>   -6.9197    1.0000 </r>
       <r>   -6.8720    1.0000 </r>
       <r>   -6.6910    1.0000 </r>
       <r>   -6.5914    1.0000 </r>
       <r>   -6.3480    1.0000 </r>
       <r>   -6.1845    1.0000 </r>
       <r>   -6.0736    1.0000 </r>
       <r>   -5.9198    1.0000 </r>
       <r>   -5.7393    1.0000 </r>
       <r>   -5.6411    1.0000 </r>
       <r>   -5.3246    1.0000 </r>
       <r>   -5.1150    1.0000 </r>
       <r>   -4.9687    1.0000 </r>
       <r>   -4.9244    1.0000 </r>
       <r>   -4.2691    1.0000 </r>
       <r>   -4.1732    1.0000 </r>
       <r>   -3.3341    1.0000 </r>
       <r>   -3.1375    0.9997 </r>
       <r>   -2.8046    0.0000 </r>
       <r>   -1.5891    0.0000 </r>
       <r>   -1.4247    0.0000 </r>
       <r>   -0.8399    0.0000 </r>
       <r>   -0.8163    0.0000 </r>
       <r>   -0.7047    0.0000 </r>
       <r>   -0.6677    0.0000 </r>
       <r>   -0.1293    0.0000 </r>
       <r>   -0.0050    0.0000 </r>
       <r>    0.2907    0.0000 </r>
       <r>    0.7041    0.0000 </r>
       <r>    0.7274    0.0000 </r>
       <r>    1.0994    0.0000 </r>
       <r>    1.1760    0.0000 </r>
       <r>    1.3630    0.0000 </r>
       <r>    1.4624    0.0000 </r>
       <r>    1.5369    0.0000 </r>
       <r>    1.5705    0.0000 </r>
       <r>    1.6370    0.0000 </r>
       <r>    1.8312    0.0000 </r>
       <r>    1.9112    0.0000 </r>
       <r>    2.0353    0.0000 </r>
       <r>    2.2234    0.0000 </r>
       <r>    2.2718    0.0000 </r>
       <r>    2.3287    0.0000 </r>
       <r>    2.3386    0.0000 </r>
       <r>    2.3947    0.0000 </r>
       <r>    2.4569    0.0000 </r>
       <r>    2.7947    0.0000 </r>
      </set>
      <set comment="kpoint 3">
       <r>  -31.7429    1.0000 </r>
       <r>  -22.1893    1.0000 </r>
       <r>  -21.8691    1.0000 </r>
       <r>  -21.6616    1.0000 </r>
       <r>  -21.4552    1.0000 </r>
       <r>  -21.0349    1.0000 </r>
       <r>  -20.8956    1.0000 </r>
       <r>  -20.7252    1.0000 </r>
       <r>  -20.4206    1.0000 </r>
       <r>  -20.1607    1.0000 </r>
       <r>  -19.7855    1.0000 </r>
       <r>  -19.6982    1.0000 </r>
       <r>  -19.3252    1.0000 </r>
       <r>  -19.2449    1.0000 </r>
       <r>  -19.0579    1.0000 </r>
       <r>  -18.5939    1.0000 </r>
       <r>  -18.4566    1.0000 </r>
       <r>  -18.1237    1.0000 </r>
       <r>  -18.0610    1.0000 </r>
       <r>  -17.5920    1.0000 </r>
       <r>  -17.4974    1.0000 </r>
       <r>  -17.3006    1.0000 </r>
       <r>  -17.2765    1.0000 </r>
       <r>  -16.8509    1.0000 </r>
       <r>  -16.6610    1.0000 </r>
       <r>  -16.1779    1.0000 </r>
       <r>  -15.9783    1.0000 </r>
       <r>  -15.8471    1.0000 </r>
       <r>  -15.2973    1.0000 </r>
       <r>  -15.1694    1.0000 </r>
       <r>  -15.1351    1.0000 </r>
       <r>  -14.8809    1.0000 </r>
       <r>  -14.7817    1.0000 </r>
       <r>  -14.4780    1.0000 </r>
       <r>  -14.4572    1.0000 </r>
       <r>  -13.7668    1.0000 </r>
       <r>  -13.7596    1.0000 </r>
       <r>  -13.1945    1.0000 </r>
       <r>  -13.0887    1.0000 </r>
       <r>  -12.9354    1.0000 </r>
       <r>  -12.9052    1.0000 </r>
       <r>  -12.5843    1.0000 </r>
       <r>  -12.5513    1.0000 </r>
       <r>  -12.3902    1.0000 </r>
       <r>  -12.0205    1.0000 </r>
       <r>  -11.6588    1.0000 </r>
       <r>  -11.4466    1.0000 </r>
       <r>  -11.2961    1.0000 </r>
       <r>  -11.1218    1.0000 </r>
       <r>  -10.9159    1.0000 </r>
       <r>  -10.8479    1.0000 </r>
       <r>  -10.5839    1.0000 </r>
       <r>  -10.5347    1.0000 </r>
       <r>  -10.2857    1.0000 </r>
       <r>  -10.2372    1.0000 </r>
       <r>  -10.1590    1.0000 </r>
       <r>  -10.0505    1.0000 </r>
       <r>   -9.8532    1.0000 </r>
       <r>   -9.8193    1.0000 </r>
       <r>   -9.6536    1.0000 </r>
       <r>   -9.6096    1.0000 </r>
       <r>   -9.5594    1.0000 </r>
       <r>   -9.5301    1.0000 </r>
       <r>   -9.3700    1.0000 </r>
       <r>   -9.3412    1.0000 </r>
       <r>   -9.2611    1.0000 </r>
       <r>   -9.1751    1.0000 </r>
       <r>   -9.0979    1.0000 </r>
       <r>   -9.0821    1.0000 </r>
       <r>   -8.8652    1.0000 </r>
       <r>   -8.7124    1.0000 </r>
       <r>   -8.6642    1.0000 </r>
       <r>   -8.5025    1.0000 </r>
       <r>   -8.3971    1.0000 </r>
       <r>   -8.2871    1.0000 </r>
       <r>   -8.1324    1.0000 </r>
       <r>   -8.0942    1.0000 </r>
       <r>   -8.0625    1.0000 </r>
       <r>   -7.9711    1.0000 </r>
       <r>   -7.8065    1.0000 </r>
       <r>   -7.6228    1.0000 </r>
       <r>   -7.3605    1.0000 </r>
       <r>   -7.3381    1.0000 </r>
       <r>   -7.2668    1.0000 </r>
       <r>   -7.1982    1.0000 </r>
       <r>   -6.9194    1.0000 </r>
       <r>   -6.8749    1.0000 </r>
       <r>   -6.6890    1.0000 </r>
       <r>   -6.5880    1.0000 </r>
       <r>   -6.3495    1.0000 </r>
       <r>   -6.1831    1.0000 </r>
       <r>   -6.0718    1.0000 </r>
       <r>   -5.9214    1.0000 </r>
       <r>   -5.7410    1.0000 </r>
       <r>   -5.6394    1.0000 </r>
       <r>   -5.3230    1.0000 </r>
       <r>   -5.1151    1.0000 </r>
       <r>   -4.9699    1.0000 </r>
       <r>   -4.9224    1.0000 </r>
       <r>   -4.2697    1.0000 </r>
       <r>   -4.1724    1.0000 </r>
       <r>   -3.3411    1.0000 </r>
       <r>   -3.1372    0.9997 </r>
       <r>   -2.8000    0.0000 </r>
       <r>   -1.5863    0.0000 </r>
       <r>   -1.4236    0.0000 </r>
       <r>   -0.8398    0.0000 </r>
       <r>   -0.8186    0.0000 </r>
       <r>   -0.7054    0.0000 </r>
       <r>   -0.6696    0.0000 </r>
       <r>   -0.1306    0.0000 </r>
       <r>   -0.0026    0.0000 </r>
       <r>    0.2908    0.0000 </r>
       <r>    0.7041    0.0000 </r>
       <r>    0.7265    0.0000 </r>
       <r>    1.0973    0.0000 </r>
       <r>    1.1729    0.0000 </r>
       <r>    1.3700    0.0000 </r>
       <r>    1.4631    0.0000 </r>
       <r>    1.5375    0.0000 </r>
       <r>    1.5700    0.0000 </r>
       <r>    1.6365    0.0000 </r>
       <r>    1.8320    0.0000 </r>
       <r>    1.9124    0.0000 </r>
       <r>    2.0432    0.0000 </r>
       <r>    2.2243    0.0000 </r>
       <r>    2.2749    0.0000 </r>
       <r>    2.3357    0.0000 </r>
       <r>    2.4261    0.0000 </r>
       <r>    2.7399    0.0000 </r>
       <r>    3.2541    0.0000 </r>
       <r>    3.6129    0.0000 </r>
      </set>
      <set comment="kpoint 4">
       <r>  -31.7429    1.0000 </r>
       <r>  -22.1892    1.0000 </r>
       <r>  -21.8694    1.0000 </r>
       <r>  -21.6615    1.0000 </r>
       <r>  -21.4548    1.0000 </r>
       <r>  -21.0350    1.0000 </r>
       <r>  -20.8959    1.0000 </r>
       <r>  -20.7253    1.0000 </r>
       <r>  -20.4208    1.0000 </r>
       <r>  -20.1602    1.0000 </r>
       <r>  -19.7855    1.0000 </r>
       <r>  -19.6973    1.0000 </r>
       <r>  -19.3261    1.0000 </r>
       <r>  -19.2436    1.0000 </r>
       <r>  -19.0593    1.0000 </r>
       <r>  -18.5952    1.0000 </r>
       <r>  -18.4557    1.0000 </r>
       <r>  -18.1220    1.0000 </r>
       <r>  -18.0626    1.0000 </r>
       <r>  -17.5903    1.0000 </r>
       <r>  -17.4997    1.0000 </r>
       <r>  -17.3015    1.0000 </r>
       <r>  -17.2762    1.0000 </r>
       <r>  -16.8503    1.0000 </r>
       <r>  -16.6579    1.0000 </r>
       <r>  -16.1762    1.0000 </r>
       <r>  -15.9791    1.0000 </r>
       <r>  -15.8480    1.0000 </r>
       <r>  -15.3003    1.0000 </r>
       <r>  -15.1681    1.0000 </r>
       <r>  -15.1361    1.0000 </r>
       <r>  -14.8842    1.0000 </r>
       <r>  -14.7832    1.0000 </r>
       <r>  -14.4778    1.0000 </r>
       <r>  -14.4547    1.0000 </r>
       <r>  -13.7660    1.0000 </r>
       <r>  -13.7580    1.0000 </r>
       <r>  -13.1968    1.0000 </r>
       <r>  -13.0869    1.0000 </r>
       <r>  -12.9327    1.0000 </r>
       <r>  -12.9027    1.0000 </r>
       <r>  -12.5853    1.0000 </r>
       <r>  -12.5468    1.0000 </r>
       <r>  -12.3930    1.0000 </r>
       <r>  -12.0223    1.0000 </r>
       <r>  -11.6620    1.0000 </r>
       <r>  -11.4481    1.0000 </r>
       <r>  -11.2976    1.0000 </r>
       <r>  -11.1228    1.0000 </r>
       <r>  -10.9122    1.0000 </r>
       <r>  -10.8540    1.0000 </r>
       <r>  -10.5862    1.0000 </r>
       <r>  -10.5281    1.0000 </r>
       <r>  -10.2828    1.0000 </r>
       <r>  -10.2372    1.0000 </r>
       <r>  -10.1635    1.0000 </r>
       <r>  -10.0501    1.0000 </r>
       <r>   -9.8537    1.0000 </r>
       <r>   -9.8150    1.0000 </r>
       <r>   -9.6537    1.0000 </r>
       <r>   -9.6067    1.0000 </r>
       <r>   -9.5601    1.0000 </r>
       <r>   -9.5250    1.0000 </r>
       <r>   -9.3720    1.0000 </r>
       <r>   -9.3401    1.0000 </r>
       <r>   -9.2588    1.0000 </r>
       <r>   -9.1767    1.0000 </r>
       <r>   -9.1007    1.0000 </r>
       <r>   -9.0816    1.0000 </r>
       <r>   -8.8646    1.0000 </r>
       <r>   -8.7132    1.0000 </r>
       <r>   -8.6644    1.0000 </r>
       <r>   -8.5025    1.0000 </r>
       <r>   -8.4081    1.0000 </r>
       <r>   -8.2865    1.0000 </r>
       <r>   -8.1346    1.0000 </r>
       <r>   -8.0948    1.0000 </r>
       <r>   -8.0690    1.0000 </r>
       <r>   -7.9707    1.0000 </r>
       <r>   -7.8067    1.0000 </r>
       <r>   -7.6122    1.0000 </r>
       <r>   -7.3581    1.0000 </r>
       <r>   -7.3338    1.0000 </r>
       <r>   -7.2653    1.0000 </r>
       <r>   -7.1945    1.0000 </r>
       <r>   -6.9200    1.0000 </r>
       <r>   -6.8729    1.0000 </r>
       <r>   -6.6952    1.0000 </r>
       <r>   -6.5894    1.0000 </r>
       <r>   -6.3443    1.0000 </r>
       <r>   -6.1873    1.0000 </r>
       <r>   -6.0754    1.0000 </r>
       <r>   -5.9207    1.0000 </r>
       <r>   -5.7386    1.0000 </r>
       <r>   -5.6411    1.0000 </r>
       <r>   -5.3225    1.0000 </r>
       <r>   -5.1177    1.0000 </r>
       <r>   -4.9708    1.0000 </r>
       <r>   -4.9233    1.0000 </r>
       <r>   -4.2699    1.0000 </r>
       <r>   -4.1693    1.0000 </r>
       <r>   -3.3364    1.0000 </r>
       <r>   -3.1364    0.9996 </r>
       <r>   -2.8043    0.0000 </r>
       <r>   -1.5924    0.0000 </r>
       <r>   -1.4233    0.0000 </r>
       <r>   -0.8382    0.0000 </r>
       <r>   -0.8188    0.0000 </r>
       <r>   -0.7052    0.0000 </r>
       <r>   -0.6644    0.0000 </r>
       <r>   -0.1259    0.0000 </r>
       <r>   -0.0080    0.0000 </r>
       <r>    0.2903    0.0000 </r>
       <r>    0.7043    0.0000 </r>
       <r>    0.7296    0.0000 </r>
       <r>    1.0992    0.0000 </r>
       <r>    1.1748    0.0000 </r>
       <r>    1.3645    0.0000 </r>
       <r>    1.4642    0.0000 </r>
       <r>    1.5608    0.0000 </r>
       <r>    1.5777    0.0000 </r>
       <r>    1.7481    0.0000 </r>
       <r>    1.8325    0.0000 </r>
       <r>    2.1777    0.0000 </r>
       <r>    2.3353    0.0000 </r>
       <r>    2.3963    0.0000 </r>
       <r>    2.6173    0.0000 </r>
       <r>    2.7879    0.0000 </r>
       <r>    2.8463    0.0000 </r>
       <r>    3.2030    0.0000 </r>
       <r>    3.5948    0.0000 </r>
       <r>    4.1755    0.0000 </r>
      </set>
      <set comment="kpoint 5">
       <r>  -31.7429    1.0000 </r>
       <r>  -22.0805    1.0000 </r>
       <r>  -22.0079    1.0000 </r>
       <r>  -21.8023    1.0000 </r>
       <r>  -21.1716    1.0000 </r>
       <r>  -21.1501    1.0000 </r>
       <r>  -20.8669    1.0000 </r>
       <r>  -20.4102    1.0000 </r>
       <r>  -20.3364    1.0000 </r>
       <r>  -20.1736    1.0000 </r>
       <r>  -20.1502    1.0000 </r>
       <r>  -20.1440    1.0000 </r>
       <r>  -19.5639    1.0000 </r>
       <r>  -18.8234    1.0000 </r>
       <r>  -18.6738    1.0000 </r>
       <r>  -18.3729    1.0000 </r>
       <r>  -18.3488    1.0000 </r>
       <r>  -18.3366    1.0000 </r>
       <r>  -17.9337    1.0000 </r>
       <r>  -17.7997    1.0000 </r>
       <r>  -17.6011    1.0000 </r>
       <r>  -17.2620    1.0000 </r>
       <r>  -17.1532    1.0000 </r>
       <r>  -17.1220    1.0000 </r>
       <r>  -16.5413    1.0000 </r>
       <r>  -16.4383    1.0000 </r>
       <r>  -16.2855    1.0000 </r>
       <r>  -15.8090    1.0000 </r>
       <r>  -15.6290    1.0000 </r>
       <r>  -15.1759    1.0000 </r>
       <r>  -14.9691    1.0000 </r>
       <r>  -14.6521    1.0000 </r>
       <r>  -13.9585    1.0000 </r>
       <r>  -13.9382    1.0000 </r>
       <r>  -13.9239    1.0000 </r>
       <r>  -13.8720    1.0000 </r>
       <r>  -13.8670    1.0000 </r>
       <r>  -13.7928    1.0000 </r>
       <r>  -13.6734    1.0000 </r>
       <r>  -13.4947    1.0000 </r>
       <r>  -13.0353    1.0000 </r>
       <r>  -12.4746    1.0000 </r>
       <r>  -12.2531    1.0000 </r>
       <r>  -12.0731    1.0000 </r>
       <r>  -11.8221    1.0000 </r>
       <r>  -11.7748    1.0000 </r>
       <r>  -11.5625    1.0000 </r>
       <r>  -11.5434    1.0000 </r>
       <r>  -11.5212    1.0000 </r>
       <r>  -10.9264    1.0000 </r>
       <r>  -10.8216    1.0000 </r>
       <r>  -10.5294    1.0000 </r>
       <r>  -10.2059    1.0000 </r>
       <r>  -10.2048    1.0000 </r>
       <r>  -10.1939    1.0000 </r>
       <r>  -10.0949    1.0000 </r>
       <r>  -10.0521    1.0000 </r>
       <r>  -10.0222    1.0000 </r>
       <r>   -9.9038    1.0000 </r>
       <r>   -9.7521    1.0000 </r>
       <r>   -9.7474    1.0000 </r>
       <r>   -9.5634    1.0000 </r>
       <r>   -9.4425    1.0000 </r>
       <r>   -9.4036    1.0000 </r>
       <r>   -9.1983    1.0000 </r>
       <r>   -9.0475    1.0000 </r>
       <r>   -9.0327    1.0000 </r>
       <r>   -8.9032    1.0000 </r>
       <r>   -8.8843    1.0000 </r>
       <r>   -8.6851    1.0000 </r>
       <r>   -8.6407    1.0000 </r>
       <r>   -8.6323    1.0000 </r>
       <r>   -8.6263    1.0000 </r>
       <r>   -8.5816    1.0000 </r>
       <r>   -8.3758    1.0000 </r>
       <r>   -8.2479    1.0000 </r>
       <r>   -8.1643    1.0000 </r>
       <r>   -8.0339    1.0000 </r>
       <r>   -7.9819    1.0000 </r>
       <r>   -7.8813    1.0000 </r>
       <r>   -7.8579    1.0000 </r>
       <r>   -7.8555    1.0000 </r>
       <r>   -7.2267    1.0000 </r>
       <r>   -7.1812    1.0000 </r>
       <r>   -7.1253    1.0000 </r>
       <r>   -6.8851    1.0000 </r>
       <r>   -6.7215    1.0000 </r>
       <r>   -6.6082    1.0000 </r>
       <r>   -6.4598    1.0000 </r>
       <r>   -6.2668    1.0000 </r>
       <r>   -6.1017    1.0000 </r>
       <r>   -5.9178    1.0000 </r>
       <r>   -5.9109    1.0000 </r>
       <r>   -5.8977    1.0000 </r>
       <r>   -5.4513    1.0000 </r>
       <r>   -5.4283    1.0000 </r>
       <r>   -5.1236    1.0000 </r>
       <r>   -5.0145    1.0000 </r>
       <r>   -4.9798    1.0000 </r>
       <r>   -4.9581    1.0000 </r>
       <r>   -3.7356    1.0000 </r>
       <r>   -3.4571    1.0000 </r>
       <r>   -3.2809    1.0000 </r>
       <r>   -2.3858    0.0000 </r>
       <r>   -2.2239    0.0000 </r>
       <r>   -0.9275    0.0000 </r>
       <r>   -0.8796    0.0000 </r>
       <r>   -0.8678    0.0000 </r>
       <r>   -0.5388    0.0000 </r>
       <r>   -0.2657    0.0000 </r>
       <r>   -0.2077    0.0000 </r>
       <r>    0.2526    0.0000 </r>
       <r>    0.2587    0.0000 </r>
       <r>    0.2620    0.0000 </r>
       <r>    0.5976    0.0000 </r>
       <r>    0.7888    0.0000 </r>
       <r>    0.9475    0.0000 </r>
       <r>    0.9734    0.0000 </r>
       <r>    1.0609    0.0000 </r>
       <r>    1.7315    0.0000 </r>
       <r>    1.7452    0.0000 </r>
       <r>    1.7670    0.0000 </r>
       <r>    1.8243    0.0000 </r>
       <r>    2.1197    0.0000 </r>
       <r>    2.1255    0.0000 </r>
       <r>    2.1259    0.0000 </r>
       <r>    2.2457    0.0000 </r>
       <r>    2.2473    0.0000 </r>
       <r>    2.3609    0.0000 </r>
       <r>    3.0006    0.0000 </r>
       <r>    3.0142    0.0000 </r>
       <r>    3.0364    0.0000 </r>
      </set>
     </set>
    </set>
   </array>
  </eigenvalues>
  <separator name="orbital magnetization" >
   <v name="MAGDIPOLOUT">      0.00000000      0.00000000      0.00000000</v>
  </separator>
  <dos>
   <i name="efermi">     -3.01678500 </i>
   <total>
    <array>
     <dimension dim="1">gridpoints</dimension>
     <dimension dim="2">spin</dimension>
     <field>energy</field>
     <field>total</field>
     <field>integrated</field>
     <set>
      <set comment="spin 1">
       <r>   -33.5389     0.0000     0.0000 </r>
       <r>   -33.4072     0.0000     0.0000 </r>
       <r>   -33.2755     0.0000     0.0000 </r>
       <r>   -33.1438     0.0000     0.0000 </r>
       <r>   -33.0121     0.0000     0.0000 </r>
       <r>   -32.8804     0.0000     0.0000 </r>
       <r>   -32.7487     0.0000     0.0000 </r>
       <r>   -32.6170     0.0000     0.0000 </r>
       <r>   -32.4853     0.0000     0.0000 </r>
       <r>   -32.3536     0.0000     0.0000 </r>
       <r>   -32.2219     0.0000     0.0000 </r>
       <r>   -32.0902     0.0000     0.0000 </r>
       <r>   -31.9585     0.0000     0.0000 </r>
       <r>   -31.8268     0.1344     0.0177 </r>
       <r>   -31.6951    13.7153     1.8240 </r>
       <r>   -31.5634     1.3362     2.0000 </r>
       <r>   -31.4317     0.0000     2.0000 </r>
       <r>   -31.3000     0.0000     2.0000 </r>
       <r>   -31.1682     0.0000     2.0000 </r>
       <r>   -31.0365     0.0000     2.0000 </r>
       <r>   -30.9048     0.0000     2.0000 </r>
       <r>   -30.7731     0.0000     2.0000 </r>
       <r>   -30.6414     0.0000     2.0000 </r>
       <r>   -30.5097     0.0000     2.0000 </r>
       <r>   -30.3780     0.0000     2.0000 </r>
       <r>   -30.2463     0.0000     2.0000 </r>
       <r>   -30.1146     0.0000     2.0000 </r>
       <r>   -29.9829     0.0000     2.0000 </r>
       <r>   -29.8512     0.0000     2.0000 </r>
       <r>   -29.7195     0.0000     2.0000 </r>
       <r>   -29.5878     0.0000     2.0000 </r>
       <r>   -29.4561     0.0000     2.0000 </r>
       <r>   -29.3244     0.0000     2.0000 </r>
       <r>   -29.1927     0.0000     2.0000 </r>
       <r>   -29.0610     0.0000     2.0000 </r>
       <r>   -28.9293     0.0000     2.0000 </r>
       <r>   -28.7976     0.0000     2.0000 </r>
       <r>   -28.6659     0.0000     2.0000 </r>
       <r>   -28.5342     0.0000     2.0000 </r>
       <r>   -28.4025     0.0000     2.0000 </r>
       <r>   -28.2708     0.0000     2.0000 </r>
       <r>   -28.1391     0.0000     2.0000 </r>
       <r>   -28.0074     0.0000     2.0000 </r>
       <r>   -27.8757     0.0000     2.0000 </r>
       <r>   -27.7440     0.0000     2.0000 </r>
       <r>   -27.6123     0.0000     2.0000 </r>
       <r>   -27.4806     0.0000     2.0000 </r>
       <r>   -27.3489     0.0000     2.0000 </r>
       <r>   -27.2172     0.0000     2.0000 </r>
       <r>   -27.0855     0.0000     2.0000 </r>
       <r>   -26.9538     0.0000     2.0000 </r>
       <r>   -26.8221     0.0000     2.0000 </r>
       <r>   -26.6904     0.0000     2.0000 </r>
       <r>   -26.5587     0.0000     2.0000 </r>
       <r>   -26.4270     0.0000     2.0000 </r>
       <r>   -26.2953     0.0000     2.0000 </r>
       <r>   -26.1636     0.0000     2.0000 </r>
       <r>   -26.0319     0.0000     2.0000 </r>
       <r>   -25.9002     0.0000     2.0000 </r>
       <r>   -25.7685     0.0000     2.0000 </r>
       <r>   -25.6368     0.0000     2.0000 </r>
       <r>   -25.5051     0.0000     2.0000 </r>
       <r>   -25.3734     0.0000     2.0000 </r>
       <r>   -25.2417     0.0000     2.0000 </r>
       <r>   -25.1100     0.0000     2.0000 </r>
       <r>   -24.9783     0.0000     2.0000 </r>
       <r>   -24.8466     0.0000     2.0000 </r>
       <r>   -24.7149     0.0000     2.0000 </r>
       <r>   -24.5832     0.0000     2.0000 </r>
       <r>   -24.4515     0.0000     2.0000 </r>
       <r>   -24.3198     0.0000     2.0000 </r>
       <r>   -24.1881     0.0000     2.0000 </r>
       <r>   -24.0564     0.0000     2.0000 </r>
       <r>   -23.9247     0.0000     2.0000 </r>
       <r>   -23.7930     0.0000     2.0000 </r>
       <r>   -23.6613     0.0000     2.0000 </r>
       <r>   -23.5296     0.0000     2.0000 </r>
       <r>   -23.3979     0.0000     2.0000 </r>
       <r>   -23.2662     0.0000     2.0000 </r>
       <r>   -23.1345     0.0000     2.0000 </r>
       <r>   -23.0028     0.0000     2.0000 </r>
       <r>   -22.8711     0.0000     2.0000 </r>
       <r>   -22.7394     0.0000     2.0000 </r>
       <r>   -22.6077     0.0000     2.0000 </r>
       <r>   -22.4760     0.0000     2.0000 </r>
       <r>   -22.3443     0.0330     2.0043 </r>
       <r>   -22.2126     4.1452     2.5503 </r>
       <r>   -22.0809     9.3593     3.7829 </r>
       <r>   -21.9492     4.9827     4.4391 </r>
       <r>   -21.8175    10.5777     5.8322 </r>
       <r>   -21.6858     5.4578     6.5510 </r>
       <r>   -21.5541     7.8920     7.5904 </r>
       <r>   -21.4224    12.4506     9.2302 </r>
       <r>   -21.2907     5.8381     9.9991 </r>
       <r>   -21.1590     3.5219    10.4629 </r>
       <r>   -21.0273     9.1466    11.6675 </r>
       <r>   -20.8956    10.4373    13.0421 </r>
       <r>   -20.7639    10.3989    14.4117 </r>
       <r>   -20.6322     8.6454    15.5503 </r>
       <r>   -20.5005     0.1752    15.5733 </r>
       <r>   -20.3688    12.8227    17.2621 </r>
       <r>   -20.2371     4.2190    17.8178 </r>
       <r>   -20.1054    18.4378    20.2460 </r>
       <r>   -19.9737     1.5138    20.4454 </r>
       <r>   -19.8420     3.2928    20.8791 </r>
       <r>   -19.7103    13.6088    22.6714 </r>
       <r>   -19.5786     8.8026    23.8307 </r>
       <r>   -19.4469     6.3370    24.6652 </r>
       <r>   -19.3152     6.4740    25.5179 </r>
       <r>   -19.1835    14.2897    27.3998 </r>
       <r>   -19.0518     7.1824    28.3458 </r>
       <r>   -18.9201     5.1032    29.0179 </r>
       <r>   -18.7884     5.2272    29.7063 </r>
       <r>   -18.6567     5.0920    30.3769 </r>
       <r>   -18.5250    14.0134    32.2225 </r>
       <r>   -18.3933    11.2264    33.7010 </r>
       <r>   -18.2615     8.9369    34.8780 </r>
       <r>   -18.1298     4.5554    35.4780 </r>
       <r>   -17.9981    15.5382    37.5244 </r>
       <r>   -17.8664     4.7253    38.1467 </r>
       <r>   -17.7347     3.8369    38.6520 </r>
       <r>   -17.6030     5.5650    39.3849 </r>
       <r>   -17.4713    15.8598    41.4737 </r>
       <r>   -17.3396     4.0864    42.0119 </r>
       <r>   -17.2079    21.5611    44.8515 </r>
       <r>   -17.0762     6.8641    45.7555 </r>
       <r>   -16.9445     3.5348    46.2210 </r>
       <r>   -16.8128     8.6701    47.3629 </r>
       <r>   -16.6811     4.3175    47.9315 </r>
       <r>   -16.5494     8.7038    49.0778 </r>
       <r>   -16.4177     8.9571    50.2575 </r>
       <r>   -16.2860     3.0972    50.6654 </r>
       <r>   -16.1543     9.1419    51.8694 </r>
       <r>   -16.0226     5.7851    52.6313 </r>
       <r>   -15.8909    13.1631    54.3649 </r>
       <r>   -15.7592    12.0849    55.9565 </r>
       <r>   -15.6275     2.0753    56.2298 </r>
       <r>   -15.4958     4.1846    56.7809 </r>
       <r>   -15.3641     2.8340    57.1541 </r>
       <r>   -15.2324    10.0584    58.4788 </r>
       <r>   -15.1007    22.0147    61.3782 </r>
       <r>   -14.9690     4.7995    62.0103 </r>
       <r>   -14.8373    11.3503    63.5051 </r>
       <r>   -14.7056    10.6286    64.9049 </r>
       <r>   -14.5739     6.4263    65.7513 </r>
       <r>   -14.4422    15.3996    67.7794 </r>
       <r>   -14.3105     5.0492    68.4444 </r>
       <r>   -14.1788     0.8893    68.5615 </r>
       <r>   -14.0471     4.2005    69.1148 </r>
       <r>   -13.9154     9.6888    70.3908 </r>
       <r>   -13.7837    16.4022    72.5510 </r>
       <r>   -13.6520    18.5000    74.9874 </r>
       <r>   -13.5203     1.7289    75.2151 </r>
       <r>   -13.3886     2.5801    75.5550 </r>
       <r>   -13.2569     0.4159    75.6097 </r>
       <r>   -13.1252    11.0241    77.0616 </r>
       <r>   -12.9935    13.8245    78.8823 </r>
       <r>   -12.8618    20.5753    81.5921 </r>
       <r>   -12.7301     1.4100    81.7778 </r>
       <r>   -12.5984     4.3706    82.3534 </r>
       <r>   -12.4667    17.9186    84.7133 </r>
       <r>   -12.3350    10.8962    86.1484 </r>
       <r>   -12.2033     3.6675    86.6314 </r>
       <r>   -12.0716     3.0435    87.0322 </r>
       <r>   -11.9399    12.3011    88.6523 </r>
       <r>   -11.8082     3.4138    89.1019 </r>
       <r>   -11.6765    15.5754    91.1532 </r>
       <r>   -11.5448    18.0157    93.5259 </r>
       <r>   -11.4131    13.7155    95.3322 </r>
       <r>   -11.2814     8.4466    96.4446 </r>
       <r>   -11.1497     5.6232    97.1852 </r>
       <r>   -11.0180     7.8908    98.2244 </r>
       <r>   -10.8863    12.5598    99.8786 </r>
       <r>   -10.7546    17.3587   102.1647 </r>
       <r>   -10.6229     1.9307   102.4190 </r>
       <r>   -10.4912    20.3475   105.0988 </r>
       <r>   -10.3595     4.0992   105.6387 </r>
       <r>   -10.2278    24.1304   108.8167 </r>
       <r>   -10.0961    25.6701   112.1974 </r>
       <r>    -9.9644    18.6283   114.6508 </r>
       <r>    -9.8327    14.2769   116.5311 </r>
       <r>    -9.7010    17.7151   118.8642 </r>
       <r>    -9.5693    27.2948   122.4589 </r>
       <r>    -9.4376    21.1579   125.2455 </r>
       <r>    -9.3059    27.1875   128.8261 </r>
       <r>    -9.1742    23.6224   131.9372 </r>
       <r>    -9.0425    28.3657   135.6730 </r>
       <r>    -8.9108    20.4312   138.3638 </r>
       <r>    -8.7791    17.7223   140.6978 </r>
       <r>    -8.6474    22.9614   143.7219 </r>
       <r>    -8.5157    17.5323   146.0309 </r>
       <r>    -8.3840    16.5860   148.2153 </r>
       <r>    -8.2523    15.1576   150.2116 </r>
       <r>    -8.1206    15.9024   152.3059 </r>
       <r>    -7.9889    28.6573   156.0801 </r>
       <r>    -7.8572    16.3429   158.2325 </r>
       <r>    -7.7255    16.6390   160.4239 </r>
       <r>    -7.5938     7.7372   161.4429 </r>
       <r>    -7.4621     2.5650   161.7807 </r>
       <r>    -7.3304    16.8468   163.9994 </r>
       <r>    -7.1987    32.5304   168.2837 </r>
       <r>    -7.0670    16.2139   170.4191 </r>
       <r>    -6.9353     4.2018   170.9725 </r>
       <r>    -6.8036    19.4786   173.5378 </r>
       <r>    -6.6719    12.3389   175.1629 </r>
       <r>    -6.5402    16.1924   177.2954 </r>
       <r>    -6.4085     7.2066   178.2445 </r>
       <r>    -6.2768    12.4355   179.8823 </r>
       <r>    -6.1451    15.3490   181.9038 </r>
       <r>    -6.0134    13.8401   183.7265 </r>
       <r>    -5.8817    19.8940   186.3466 </r>
       <r>    -5.7500     8.0295   187.4041 </r>
       <r>    -5.6183    13.6554   189.2025 </r>
       <r>    -5.4866     3.3859   189.6484 </r>
       <r>    -5.3548     7.8592   190.6835 </r>
       <r>    -5.2231     8.6347   191.8207 </r>
       <r>    -5.0914    11.8255   193.3781 </r>
       <r>    -4.9597    17.9739   195.7453 </r>
       <r>    -4.8280    15.5229   197.7897 </r>
       <r>    -4.6963     3.1958   198.2106 </r>
       <r>    -4.5646     0.0883   198.2222 </r>
       <r>    -4.4329     0.0000   198.2222 </r>
       <r>    -4.3012     2.8015   198.5912 </r>
       <r>    -4.1695    17.6498   200.9157 </r>
       <r>    -4.0378     4.8577   201.5555 </r>
       <r>    -3.9061     0.0008   201.5556 </r>
       <r>    -3.7744     0.4581   201.6159 </r>
       <r>    -3.6427     2.9019   201.9981 </r>
       <r>    -3.5110     0.2286   202.0282 </r>
       <r>    -3.3793     4.3101   202.5958 </r>
       <r>    -3.2476    12.3124   204.2174 </r>
       <r>    -3.1159    10.7421   205.6321 </r>
       <r>    -2.9842     2.8358   206.0056 </r>
       <r>    -2.8525     2.3985   206.3215 </r>
       <r>    -2.7208     9.2670   207.5420 </r>
       <r>    -2.5891     0.1033   207.5556 </r>
       <r>    -2.4574     0.0719   207.5650 </r>
       <r>    -2.3257     3.1583   207.9810 </r>
       <r>    -2.1940     2.8462   208.3558 </r>
       <r>    -2.0623     0.6728   208.4444 </r>
       <r>    -1.9306     0.0000   208.4444 </r>
       <r>    -1.7989     0.0000   208.4444 </r>
       <r>    -1.6672     0.1411   208.4630 </r>
       <r>    -1.5355     9.4043   209.7016 </r>
       <r>    -1.4038    12.5371   211.3527 </r>
       <r>    -1.2721     3.2273   211.7778 </r>
       <r>    -1.1404     0.0001   211.7778 </r>
       <r>    -1.0087     1.0803   211.9201 </r>
       <r>    -0.8770    10.4590   213.2975 </r>
       <r>    -0.7453    23.3934   216.3785 </r>
       <r>    -0.6136    18.4549   218.8090 </r>
       <r>    -0.4819     5.4243   219.5234 </r>
       <r>    -0.3502     0.2729   219.5593 </r>
       <r>    -0.2185     4.3787   220.1360 </r>
       <r>    -0.0868    11.3694   221.6334 </r>
       <r>     0.0449    10.4245   223.0063 </r>
       <r>     0.1766     0.9164   223.1270 </r>
       <r>     0.3083    16.2214   225.2633 </r>
       <r>     0.4400     7.4449   226.2438 </r>
       <r>     0.5717     3.3392   226.6836 </r>
       <r>     0.7034    10.7226   228.0958 </r>
       <r>     0.8351    17.2093   230.3623 </r>
       <r>     0.9668     6.1493   231.1722 </r>
       <r>     1.0985    11.0053   232.6216 </r>
       <r>     1.2302    15.0146   234.5990 </r>
       <r>     1.3619     8.0506   235.6593 </r>
       <r>     1.4936    15.0726   237.6443 </r>
       <r>     1.6253    23.0193   240.6760 </r>
       <r>     1.7570    15.5584   242.7251 </r>
       <r>     1.8887    27.4583   246.3413 </r>
       <r>     2.0204     8.5110   247.4623 </r>
       <r>     2.1521    15.8127   249.5448 </r>
       <r>     2.2838    26.1155   252.9842 </r>
       <r>     2.4155    28.9796   256.8009 </r>
       <r>     2.5472     7.5327   257.7930 </r>
       <r>     2.6789     6.0955   258.5957 </r>
       <r>     2.8106     9.1332   259.7986 </r>
       <r>     2.9423     5.1441   260.4761 </r>
       <r>     3.0740     9.1830   261.6855 </r>
       <r>     3.2057     2.7812   262.0518 </r>
       <r>     3.3374     4.6375   262.6625 </r>
       <r>     3.4691     0.0320   262.6668 </r>
       <r>     3.6008     3.1535   263.0821 </r>
       <r>     3.7325     3.5938   263.5554 </r>
       <r>     3.8642     0.0014   263.5556 </r>
       <r>     3.9959     0.0000   263.5556 </r>
       <r>     4.1276     0.2962   263.5946 </r>
       <r>     4.2593     3.0485   263.9961 </r>
       <r>     4.3910     0.0300   264.0000 </r>
       <r>     4.5227     0.0000   264.0000 </r>
       <r>     4.6544     0.0000   264.0000 </r>
       <r>     4.7861     0.0000   264.0000 </r>
       <r>     4.9178     0.0000   264.0000 </r>
       <r>     5.0495     0.0000   264.0000 </r>
       <r>     5.1812     0.0000   264.0000 </r>
       <r>     5.3129     0.0000   264.0000 </r>
       <r>     5.4446     0.0000   264.0000 </r>
       <r>     5.5763     0.0000   264.0000 </r>
       <r>     5.7080     0.0000   264.0000 </r>
       <r>     5.8397     0.0000   264.0000 </r>
       <r>     5.9714     0.0000   264.0000 </r>
      </set>
     </set>
    </array>
   </total>
  </dos>
 </calculation>
 <structure name="finalpos" >
  <crystal>
   <varray name="basis" >
    <v>      12.30000019       0.00000000       0.00000000 </v>
    <v>       6.15000080      10.65211222       0.00000000 </v>
    <v>       0.00000000       0.00000000      20.00000000 </v>
   </varray>
   <i name="volume">   2620.41964732 </i>
   <varray name="rec_basis" >
    <v>       0.08130081      -0.04693905       0.00000000 </v>
    <v>       0.00000000       0.09387809       0.00000000 </v>
    <v>       0.00000000       0.00000000       0.05000000 </v>
   </varray>
  </crystal>
  <varray name="positions" >
   <v>       0.00000000       0.00000000       0.41799748 </v>
   <v>       0.20000000       0.00000000       0.41799748 </v>
   <v>       0.40000000       0.00000000       0.41799748 </v>
   <v>       0.60000000       0.00000000       0.41799748 </v>
   <v>       0.80000000       0.00000000       0.41799748 </v>
   <v>       0.00000000       0.20000000       0.41799748 </v>
   <v>       0.20000000       0.20000000       0.41799748 </v>
   <v>       0.40000000       0.19918699       0.41799748 </v>
   <v>       0.60000000       0.20000000       0.41799748 </v>
   <v>       0.80000000       0.20000000       0.41799748 </v>
   <v>       0.00000000       0.40000000       0.41799748 </v>
   <v>       0.20000000       0.40000000       0.41799748 </v>
   <v>       0.40000000       0.40000000       0.41799748 </v>
   <v>       0.60000000       0.40000000       0.41799748 </v>
   <v>       0.80000000       0.40000000       0.41799748 </v>
   <v>       0.00000000       0.60000000       0.41799748 </v>
   <v>       0.20000000       0.60000000       0.41799748 </v>
   <v>       0.40000000       0.60000000       0.41799748 </v>
   <v>       0.60000000       0.60000000       0.41799748 </v>
   <v>       0.80000000       0.60000000       0.41799748 </v>
   <v>       0.00000000       0.80000000       0.41799748 </v>
   <v>       0.20000000       0.80000000       0.41799748 </v>
   <v>       0.40000000       0.80000000       0.41799748 </v>
   <v>       0.60000000       0.80000000       0.41799748 </v>
   <v>       0.80000000       0.80000000       0.41799748 </v>
   <v>       0.06666667       0.06666660       0.41800609 </v>
   <v>       0.26666667       0.06666660       0.41800609 </v>
   <v>       0.46666667       0.06666660       0.41800609 </v>
   <v>       0.66666667       0.06666660       0.41800609 </v>
   <v>       0.86666667       0.06666660       0.41800609 </v>
   <v>       0.06666667       0.26666660       0.41800609 </v>
   <v>       0.26666667       0.26666660       0.41800609 </v>
   <v>       0.46666667       0.26666660       0.41800609 </v>
   <v>       0.66666667       0.26666660       0.41800609 </v>
   <v>       0.86666667       0.26666660       0.41800609 </v>
   <v>       0.06666667       0.46666660       0.41800609 </v>
   <v>       0.26666667       0.46666660       0.41800609 </v>
   <v>       0.46666667       0.46666660       0.41800609 </v>
   <v>       0.66666667       0.46666660       0.41800609 </v>
   <v>       0.86666667       0.46666660       0.41800609 </v>
   <v>       0.06666667       0.66666660       0.41800609 </v>
   <v>       0.26666667       0.66666660       0.41800609 </v>
   <v>       0.46666667       0.66666660       0.41800609 </v>
   <v>       0.66666667       0.66666660       0.41800609 </v>
   <v>       0.86666667       0.66666660       0.41800609 </v>
   <v>       0.06666667       0.86666660       0.41800609 </v>
   <v>       0.26666667       0.86666660       0.41800609 </v>
   <v>       0.46666667       0.86666660       0.41800609 </v>
   <v>       0.66666667       0.86666660       0.41800609 </v>
   <v>       0.86666667       0.86666660       0.41800609 </v>
   <v>       0.40000000       0.40000000       0.46800609 </v>
  </varray>
  <varray name="velocities" >
   <v>       0.00000000       0.00000000       0.00000000 </v>
   <v>       0.00000000       0.00000000       0.00000000 </v>
   <v>       0.00000000       0.00000000       0.00000000 </v>
   <v>       0.00000000       0.00000000       0.00000000 </v>
   <v>       0.00000000       0.00000000       0.00000000 </v>
   <v>       0.00000000       0.00000000       0.00000000 </v>
   <v>       0.00000000       0.00000000       0.00000000 </v>
   <v>       0.00000000       0.00000000       0.00000000 </v>
   <v>       0.00000000       0.00000000       0.00000000 </v>
   <v>       0.00000000       0.00000000       0.00000000 </v>
   <v>       0.00000000       0.00000000       0.00000000 </v>
   <v>       0.00000000       0.00000000       0.00000000 </v>
   <v>       0.00000000       0.00000000       0.00000000 </v>
   <v>       0.00000000       0.00000000       0.00000000 </v>
   <v>       0.00000000       0.00000000       0.00000000 </v>
   <v>       0.00000000       0.00000000       0.00000000 </v>
   <v>       0.00000000       0.00000000       0.00000000 </v>
   <v>       0.00000000       0.00000000       0.00000000 </v>
   <v>       0.00000000       0.00000000       0.00000000 </v>
   <v>       0.00000000       0.00000000       0.00000000 </v>
   <v>       0.00000000       0.00000000       0.00000000 </v>
   <v>       0.00000000       0.00000000       0.00000000 </v>
   <v>       0.00000000       0.00000000       0.00000000 </v>
   <v>       0.00000000       0.00000000       0.00000000 </v>
   <v>       0.00000000       0.00000000       0.00000000 </v>
   <v>       0.00000000       0.00000000       0.00000000 </v>
   <v>       0.00000000       0.00000000       0.00000000 </v>
   <v>       0.00000000       0.00000000       0.00000000 </v>
   <v>       0.00000000       0.00000000       0.00000000 </v>
   <v>       0.00000000       0.00000000       0.00000000 </v>
   <v>       0.00000000       0.00000000       0.00000000 </v>
   <v>       0.00000000       0.00000000       0.00000000 </v>
   <v>       0.00000000       0.00000000       0.00000000 </v>
   <v>       0.00000000       0.00000000       0.00000000 </v>
   <v>       0.00000000       0.00000000       0.00000000 </v>
   <v>       0.00000000       0.00000000       0.00000000 </v>
   <v>       0.00000000       0.00000000       0.00000000 </v>
   <v>       0.00000000       0.00000000       0.00000000 </v>
   <v>       0.00000000       0.00000000       0.00000000 </v>
   <v>       0.00000000       0.00000000       0.00000000 </v>
   <v>       0.00000000       0.00000000       0.00000000 </v>
   <v>       0.00000000       0.00000000       0.00000000 </v>
   <v>       0.00000000       0.00000000       0.00000000 </v>
   <v>       0.00000000       0.00000000       0.00000000 </v>
   <v>       0.00000000       0.00000000       0.00000000 </v>
   <v>       0.00000000       0.00000000       0.00000000 </v>
   <v>       0.00000000       0.00000000       0.00000000 </v>
   <v>       0.00000000       0.00000000       0.00000000 </v>
   <v>       0.00000000       0.00000000       0.00000000 </v>
   <v>       0.00000000       0.00000000       0.00000000 </v>
   <v>       0.00000000       0.00000000       0.00000000 </v>
  </varray>
 </structure>
</modeling>
