 vasp.5.4.4.18Apr17-6-g9f103f2a35 (build Aug 02 2018 15:13:56) complex          
  
 executed on             LinuxIFC date 2020.05.31  15:34:51
 running on    4 total cores
 distrk:  each k-point on    4 cores,    1 groups
 distr:  one band on NCORES_PER_BAND=   1 cores,    4 groups


--------------------------------------------------------------------------------------------------------


 INCAR:
 POTCAR:    PAW C                                 
 POTCAR:    PAW C                                 
   VRHFIN =C: s2p2                                                              
   LEXCH  = CA                                                                  
   EATOM  =   146.6877 eV,   10.7812 Ry                                         
                                                                                
   TITEL  = PAW C                                                               
   LULTRA =        F    use ultrasoft PP ?                                      
   IUNSCR =        0    unscreen: 0-lin 1-nonlin 2-no                           
   RPACOR =     .000    partial core radius                                     
   POMASS =   12.011; ZVAL   =    4.000    mass and valenz                      
   RCORE  =    1.500    outmost cutoff radius                                   
   RWIGS  =    1.630; RWIGS  =     .863    wigner-seitz radius (au A)           
   ENMAX  =  400.000; ENMIN  =  300.000 eV                                      
   ICORE  =        2    local potential                                         
   LCOR   =        T    correct aug charges                                     
   LPAW   =        T    paw PP                                                  
   EAUG   =  644.873                                                            
   DEXC   =     .000                                                            
   RMAX   =    2.266    core radius for proj-oper                               
   RAUG   =    1.300    factor for augmentation sphere                          
   RDEP   =    1.501    radius for radial grids                                 
   RDEPT  =    1.300    core radius for aug-charge                              
   QCUT   =   -5.516; QGAM   =   11.032    optimization parameters              
                                                                                
   Description                                                                  
     l     E      TYP  RCUT    TYP  RCUT                                        
     0   .000     23  1.200                                                     
     0   .000     23  1.200                                                     
     1   .000     23  1.500                                                     
     1  2.500     23  1.500                                                     
     2   .000      7  1.500                                                     
  local pseudopotential read in
  atomic valenz-charges read in
  non local Contribution for L=           0  read in
    real space projection operators read in
  non local Contribution for L=           0  read in
    real space projection operators read in
  non local Contribution for L=           1  read in
    real space projection operators read in
  non local Contribution for L=           1  read in
    real space projection operators read in
    PAW grid and wavefunctions read in
 
   number of l-projection  operators is LMAX  =           4
   number of lm-projection operators is LMMAX =           8
 
 Optimization of the real space projectors (new method)

 maximal supplied QI-value         = 25.13
 optimisation between [QCUT,QGAM] = [ 10.05, 20.36] = [ 28.30,116.06] Ry 
 Optimized for a Real-space Cutoff    1.30 Angstroem

   l    n(q)    QCUT    max X(q) W(low)/X(q) W(high)/X(q)  e(spline) 
   0      8    10.053     5.578    0.40E-04    0.40E-04    0.54E-07
   0      8    10.053    68.427    0.49E-03    0.71E-03    0.18E-06
   1      7    10.053     2.787    0.79E-04    0.12E-03    0.94E-07
   1      7    10.053     4.374    0.25E-03    0.19E-03    0.21E-06
  PAW C                                 :
 energy of atom  1       EATOM= -146.6877
 kinetic energy error for atom=    0.0289 (will be added to EATOM!!)
 
 
 POSCAR: supercell                               
  positions in direct lattice
  No initial velocities read in
 exchange correlation table for  LEXCH =        2
   RHO(1)=    0.500       N(1)  =     2000
   RHO(2)=  100.500       N(2)  =     4000

 VTST: version 3.1, (03/28/14)

 CHAIN: initializing optimizer
 
 OPT: Using VASP Dynamics algorithm
 CHAIN: Read ICHAIN            0
 
 POSCAR: supercell                               
  positions in direct lattice
  No initial velocities read in
 


--------------------------------------------------------------------------------------------------------


 ion  position               nearest neighbor table
   1  0.000  0.000  0.500-   8 1.42  10 1.42  14 1.42
   2  0.286  0.857  0.500-  11 1.42   9 1.42   8 1.42
   3  0.571  0.714  0.500-   9 1.42  12 1.42  10 1.42
   4  0.857  0.571  0.500-  10 1.42  13 1.42  11 1.42
   5  0.143  0.429  0.500-  12 1.42  11 1.42  14 1.42
   6  0.429  0.286  0.500-  13 1.42   8 1.42  12 1.42
   7  0.714  0.143  0.500-  14 1.42  13 1.42   9 1.42
   8  0.238  0.048  0.500-   6 1.42   1 1.42   2 1.42
   9  0.524  0.905  0.500-   3 1.42   2 1.42   7 1.42
  10  0.810  0.762  0.500-   4 1.42   1 1.42   3 1.42
  11  0.095  0.619  0.500-   2 1.42   4 1.42   5 1.42
  12  0.381  0.476  0.500-   5 1.42   3 1.42   6 1.42
  13  0.667  0.333  0.500-   6 1.42   4 1.42   7 1.42
  14  0.952  0.190  0.500-   7 1.42   1 1.42   5 1.42
 
  LATTYP: Found a hexagonal cell.
 ALAT       =     6.5085482252
 C/A-ratio  =     1.5364409472
  
  Lattice vectors:
  
 A1 = (   6.1500000000,   2.1304224933,   0.0000000000)
 A2 = (  -4.9200000000,   4.2608449866,   0.0000000000)
 A3 = (   0.0000000000,   0.0000000000,  10.0000000000)


Analysis of symmetry for initial positions (statically):
=====================================================================
 Subroutine PRICEL returns following result:
 
  LATTYP: Found a hexagonal cell.
 ALAT       =     2.4600000000
 C/A-ratio  =     4.0650406504
  
  Lattice vectors:
  
 A1 = (  -2.4600000000,  -0.0000000000,   0.0000000000)
 A2 = (   1.2300000000,   2.1304224933,   0.0000000000)
 A3 = (   0.0000000000,   0.0000000000, -10.0000000000)
 
   7 primitive cells build up your supercell.
 

 Routine SETGRP: Setting up the symmetry group for a 
 hexagonal supercell.


 Subroutine GETGRP returns: Found 12 space group operations
 (whereof  6 operations were pure point group operations)
 out of a pool of 24 trial point group operations.


The static configuration has the point symmetry C_3h.
 The point group associated with its full space group is C_6h.


Analysis of symmetry for dynamics (positions and initial velocities):
=====================================================================
 Subroutine PRICEL returns following result:
 
  LATTYP: Found a hexagonal cell.
 ALAT       =     2.4600000000
 C/A-ratio  =     4.0650406504
  
  Lattice vectors:
  
 A1 = (  -2.4600000000,  -0.0000000000,   0.0000000000)
 A2 = (   1.2300000000,   2.1304224933,   0.0000000000)
 A3 = (   0.0000000000,   0.0000000000, -10.0000000000)
 
   7 primitive cells build up your supercell.
 

 Routine SETGRP: Setting up the symmetry group for a 
 hexagonal supercell.


 Subroutine GETGRP returns: Found 12 space group operations
 (whereof  6 operations were pure point group operations)
 out of a pool of 24 trial point group operations.


The dynamic configuration has the point symmetry C_3h.
 The point group associated with its full space group is C_6h.


 Subroutine INISYM returns: Found 12 space group operations
 (whereof  6 operations are pure point group operations),
 and found     7 'primitive' translations

 
 
 KPOINTS: Graphene M-G-K                          
  interpolating k-points between supplied coordinates
  k-points in reciprocal lattice
Space group operators:
 irot       det(A)        alpha          n_x          n_y          n_z        tau_x        tau_y        tau_z
    1     1.000000     0.000000     1.000000     0.000000     0.000000     0.000000     0.000000     0.000000
    2    -1.000000    60.000000     0.000000     0.000000    -1.000000     0.000000     0.000000     0.000000
    3     1.000000   120.000000     0.000000     0.000000    -1.000000     0.000000     0.000000     0.000000
    4    -1.000000   180.000000     0.000000     0.000000     1.000000     0.000000     0.000000     0.000000
    5     1.000000   120.000000     0.000000     0.000000     1.000000     0.000000     0.000000     0.000000
    6    -1.000000    60.000000     0.000000     0.000000     1.000000     0.000000     0.000000     0.000000
    7    -1.000000     0.000000     1.000000     0.000000     0.000000    -0.047619     0.190476     0.000000
    8     1.000000    60.000000     0.000000     0.000000    -1.000000    -0.047619     0.190476     0.000000
    9    -1.000000   120.000000     0.000000     0.000000    -1.000000    -0.047619     0.190476     0.000000
   10     1.000000   180.000000     0.000000     0.000000     1.000000    -0.047619     0.190476     0.000000
   11    -1.000000   120.000000     0.000000     0.000000     1.000000    -0.047619     0.190476     0.000000
   12     1.000000    60.000000     0.000000     0.000000     1.000000    -0.047619     0.190476     0.000000


--------------------------------------------------------------------------------------------------------




 Dimension of arrays:
   k-points           NKPTS =    202   k-points in BZ     NKDIM =    202   number of bands    NBANDS=     36
   number of dos      NEDOS =    301   number of ions     NIONS =     14
   non local maximal  LDIM  =      4   non local SUM 2l+1 LMDIM =      8
   total plane-waves  NPLWV =  51200
   max r-space proj   IRMAX =   1338   max aug-charges    IRDMAX=   1846
   dimension x,y,z NGX =    32 NGY =   32 NGZ =   50
   dimension x,y,z NGXF=    64 NGYF=   64 NGZF=  100
   support grid    NGXF=    64 NGYF=   64 NGZF=  100
   ions per type =              14
   NGX,Y,Z   is equivalent  to a cutoff of   8.17,  8.17,  8.31 a.u.
   NGXF,Y,Z  is equivalent  to a cutoff of  16.35, 16.35, 16.62 a.u.

 SYSTEM =  vasp                                    
 POSCAR =  supercell                               

 Startparameter for this run:
   NWRITE =      2    write-flag & timer
   PREC   = normal    normal or accurate (medium, high low for compatibility)
   ISTART =      0    job   : 0-new  1-cont  2-samecut
   ICHARG =     11    charge: 1-file 2-atom 10-const
   ISPIN  =      1    spin polarized calculation?
   LNONCOLLINEAR =      F non collinear calculations
   LSORBIT =      F    spin-orbit coupling
   INIWAV =      1    electr: 0-lowe 1-rand  2-diag
   LASPH  =      F    aspherical Exc in radial PAW
   METAGGA=      F    non-selfconsistent MetaGGA calc.

 Electronic Relaxation 1
   ENCUT  =  400.0 eV  29.40 Ry    5.42 a.u.  10.61 10.61 16.31*2*pi/ulx,y,z
   ENINI  =  400.0     initial cutoff
   ENAUG  =  644.9 eV  augmentation charge cutoff
   NELM   =    200;   NELMIN=  2; NELMDL= -5     # of ELM steps 
   EDIFF  = 0.1E-05   stopping-criterion for ELM
   LREAL  =      T    real-space projection
   NLSPLINE    = F    spline interpolate recip. space projectors
   LCOMPAT=      F    compatible to vasp.4.4
   GGA_COMPAT  = T    GGA compatible to vasp.4.4-vasp.4.6
   LMAXPAW     = -100 max onsite density
   LMAXMIX     =    2 max onsite mixed and CHGCAR
   VOSKOWN=      0    Vosko Wilk Nusair interpolation
   ROPT   =   -0.00050
 Ionic relaxation
   EDIFFG = 0.1E-04   stopping-criterion for IOM
   NSW    =      0    number of steps for IOM
   NBLOCK =      1;   KBLOCK =      1    inner block; outer block 
   IBRION =     -1    ionic relax: 0-MD 1-quasi-New 2-CG
   NFREE  =      0    steps in history (QN), initial steepest desc. (CG)
   ISIF   =      2    stress and relaxation
   IWAVPR =     10    prediction:  0-non 1-charg 2-wave 3-comb
   ISYM   =      2    0-nonsym 1-usesym 2-fastsym
   LCORR  =      T    Harris-Foulkes like correction to forces

   POTIM  = 0.5000    time-step for ionic-motion
   TEIN   =    0.0    initial temperature
   TEBEG  =    0.0;   TEEND  =   0.0 temperature during run
   SMASS  =  -3.00    Nose mass-parameter (am)
   estimated Nose-frequenzy (Omega)   =  0.10E-29 period in steps =****** mass=  -0.968E-27a.u.
   SCALEE = 1.0000    scale energy and forces
   NPACO  =    256;   APACO  = 16.0  distance and # of slots for P.C.
   PSTRESS=    0.0 pullay stress

  Mass of Ions in am
   POMASS =  12.01
  Ionic Valenz
   ZVAL   =   4.00
  Atomic Wigner-Seitz radii
   RWIGS  =  -1.00
  virtual crystal weights 
   VCA    =   1.00
   NELECT =      56.0000    total number of electrons
   NUPDOWN=      -1.0000    fix difference up-down

 DOS related values:
   EMIN   =  10.00;   EMAX   =-10.00  energy-range for DOS
   EFERMI =   0.00
   ISMEAR =    -1;   SIGMA  =   0.02  broadening in eV -4-tet -1-fermi 0-gaus

 Electronic relaxation 2 (details)
   IALGO  =     68    algorithm
   LDIAG  =      T    sub-space diagonalisation (order eigenvalues)
   LSUBROT=      F    optimize rotation matrix (better conditioning)
   TURBO    =      0    0=normal 1=particle mesh
   IRESTART =      0    0=no restart 2=restart with 2 vectors
   NREBOOT  =      0    no. of reboots
   NMIN     =      0    reboot dimension
   EREF     =   0.00    reference energy to select bands
   IMIX   =      4    mixing-type and parameters
     AMIX     =   0.40;   BMIX     =  1.00
     AMIX_MAG =   1.60;   BMIX_MAG =  1.00
     AMIN     =   0.10
     WC   =   100.;   INIMIX=   1;  MIXPRE=   1;  MAXMIX= -45

 Intra band minimization:
   WEIMIN = 0.0000     energy-eigenvalue tresh-hold
   EBREAK =  0.69E-08  absolut break condition
   DEPER  =   0.30     relativ break condition  

   TIME   =   0.40     timestep for ELM

  volume/ion in A,a.u.               =      26.20       176.83
  Fermi-wavevector in a.u.,A,eV,Ry     =   0.874926  1.653370 10.415193  0.765495
  Thomas-Fermi vector in A             =   1.994525
 
 Write flags
   LWAVE        =      T    write WAVECAR
   LDOWNSAMPLE  =      F    k-point downsampling of WAVECAR
   LCHARG       =      F    write CHGCAR
   LVTOT        =      F    write LOCPOT, total local potential
   LVHAR        =      F    write LOCPOT, Hartree potential only
   LELF         =      F    write electronic localiz. function (ELF)
   LORBIT       =      0    0 simple, 1 ext, 2 COOP (PROOUT), +10 PAW based schemes


 Dipole corrections
   LMONO  =      F    monopole corrections only (constant potential shift)
   LDIPOL =      F    correct potential (dipole corrections)
   IDIPOL =      0    1-x, 2-y, 3-z, 4-all directions 
   EPSILON=  1.0000000 bulk dielectric constant

 Exchange correlation treatment:
   GGA     =    --    GGA type
   LEXCH   =     2    internal setting for exchange type
   VOSKOWN=      0    Vosko Wilk Nusair interpolation
   LHFCALC =     F    Hartree Fock is set to
   LHFONE  =     F    Hartree Fock one center treatment
   AEXX    =    0.0000 exact exchange contribution

 Linear response parameters
   LEPSILON=     F    determine dielectric tensor
   LRPA    =     F    only Hartree local field effects (RPA)
   LNABLA  =     F    use nabla operator in PAW spheres
   LVEL    =     F    velocity operator in full k-point grid
   LINTERFAST=   F  fast interpolation
   KINTER  =     0    interpolate to denser k-point grid
   CSHIFT  =0.1000    complex shift for real part using Kramers Kronig
   OMEGAMAX=  -1.0    maximum frequency
   DEG_THRESHOLD= 0.2000000E-02 threshold for treating states as degnerate
   RTIME   =   -0.100 relaxation time in fs
  (WPLASMAI=    0.000 imaginary part of plasma frequency in eV, 0.658/RTIME)
   DFIELD  = 0.0000000 0.0000000 0.0000000 field for delta impulse in time
 
 Orbital magnetization related:
   ORBITALMAG=     F  switch on orbital magnetization
   LCHIMAG   =     F  perturbation theory with respect to B field
   DQ        =  0.001000  dq finite difference perturbation B field
   LLRAUG    =     F  two centre corrections for induced B field



--------------------------------------------------------------------------------------------------------


 Static calculation
 charge density and potential remain constant during run
 non-spin polarized calculation
 RMM-DIIS sequential band-by-band and
  variant of blocked Davidson during initial phase
 perform sub-space diagonalisation
    before iterative eigenvector-optimisation
 no mixing
 using additional bands            8
 real space projection scheme for non local part
 calculate Harris-corrections to forces 
   (improved forces if not selfconsistent)
 use of overlap-Matrix (Vanderbilt PP)
 Fermi-smearing in eV        SIGMA  =   0.02


--------------------------------------------------------------------------------------------------------


  energy-cutoff  :      400.00
  volume of cell :      366.86
      direct lattice vectors                 reciprocal lattice vectors
     6.150000000  2.130422493  0.000000000     0.116144019  0.134111561  0.000000000
    -4.920000000  4.260844987  0.000000000    -0.058072009  0.167639451  0.000000000
     0.000000000  0.000000000 10.000000000     0.000000000  0.000000000  0.100000000

  length of vectors
     6.508548225  6.508548225 10.000000000     0.177412919  0.177412919  0.100000000


 
 k-points in units of 2pi/SCALE and weight: Graphene M-G-K                          
   0.00000000  0.23469523  0.00000000       0.005
   0.00000000  0.23234828  0.00000000       0.005
   0.00000000  0.23000133  0.00000000       0.005
   0.00000000  0.22765437  0.00000000       0.005
   0.00000000  0.22530742  0.00000000       0.005
   0.00000000  0.22296047  0.00000000       0.005
   0.00000000  0.22061352  0.00000000       0.005
   0.00000000  0.21826657  0.00000000       0.005
   0.00000000  0.21591961  0.00000000       0.005
   0.00000000  0.21357266  0.00000000       0.005
   0.00000000  0.21122571  0.00000000       0.005
   0.00000000  0.20887876  0.00000000       0.005
   0.00000000  0.20653180  0.00000000       0.005
   0.00000000  0.20418485  0.00000000       0.005
   0.00000000  0.20183790  0.00000000       0.005
   0.00000000  0.19949095  0.00000000       0.005
   0.00000000  0.19714399  0.00000000       0.005
   0.00000000  0.19479704  0.00000000       0.005
   0.00000000  0.19245009  0.00000000       0.005
   0.00000000  0.19010314  0.00000000       0.005
   0.00000000  0.18775619  0.00000000       0.005
   0.00000000  0.18540923  0.00000000       0.005
   0.00000000  0.18306228  0.00000000       0.005
   0.00000000  0.18071533  0.00000000       0.005
   0.00000000  0.17836838  0.00000000       0.005
   0.00000000  0.17602142  0.00000000       0.005
   0.00000000  0.17367447  0.00000000       0.005
   0.00000000  0.17132752  0.00000000       0.005
   0.00000000  0.16898057  0.00000000       0.005
   0.00000000  0.16663361  0.00000000       0.005
   0.00000000  0.16428666  0.00000000       0.005
   0.00000000  0.16193971  0.00000000       0.005
   0.00000000  0.15959276  0.00000000       0.005
   0.00000000  0.15724581  0.00000000       0.005
   0.00000000  0.15489885  0.00000000       0.005
   0.00000000  0.15255190  0.00000000       0.005
   0.00000000  0.15020495  0.00000000       0.005
   0.00000000  0.14785800  0.00000000       0.005
   0.00000000  0.14551104  0.00000000       0.005
   0.00000000  0.14316409  0.00000000       0.005
   0.00000000  0.14081714  0.00000000       0.005
   0.00000000  0.13847019  0.00000000       0.005
   0.00000000  0.13612323  0.00000000       0.005
   0.00000000  0.13377628  0.00000000       0.005
   0.00000000  0.13142933  0.00000000       0.005
   0.00000000  0.12908238  0.00000000       0.005
   0.00000000  0.12673542  0.00000000       0.005
   0.00000000  0.12438847  0.00000000       0.005
   0.00000000  0.12204152  0.00000000       0.005
   0.00000000  0.11969457  0.00000000       0.005
   0.00000000  0.11734762  0.00000000       0.005
   0.00000000  0.11500066  0.00000000       0.005
   0.00000000  0.11265371  0.00000000       0.005
   0.00000000  0.11030676  0.00000000       0.005
   0.00000000  0.10795981  0.00000000       0.005
   0.00000000  0.10561285  0.00000000       0.005
   0.00000000  0.10326590  0.00000000       0.005
   0.00000000  0.10091895  0.00000000       0.005
   0.00000000  0.09857200  0.00000000       0.005
   0.00000000  0.09622504  0.00000000       0.005
   0.00000000  0.09387809  0.00000000       0.005
   0.00000000  0.09153114  0.00000000       0.005
   0.00000000  0.08918419  0.00000000       0.005
   0.00000000  0.08683724  0.00000000       0.005
   0.00000000  0.08449028  0.00000000       0.005
   0.00000000  0.08214333  0.00000000       0.005
   0.00000000  0.07979638  0.00000000       0.005
   0.00000000  0.07744943  0.00000000       0.005
   0.00000000  0.07510247  0.00000000       0.005
   0.00000000  0.07275552  0.00000000       0.005
   0.00000000  0.07040857  0.00000000       0.005
   0.00000000  0.06806162  0.00000000       0.005
   0.00000000  0.06571466  0.00000000       0.005
   0.00000000  0.06336771  0.00000000       0.005
   0.00000000  0.06102076  0.00000000       0.005
   0.00000000  0.05867381  0.00000000       0.005
   0.00000000  0.05632686  0.00000000       0.005
   0.00000000  0.05397990  0.00000000       0.005
   0.00000000  0.05163295  0.00000000       0.005
   0.00000000  0.04928600  0.00000000       0.005
   0.00000000  0.04693905  0.00000000       0.005
   0.00000000  0.04459209  0.00000000       0.005
   0.00000000  0.04224514  0.00000000       0.005
   0.00000000  0.03989819  0.00000000       0.005
   0.00000000  0.03755124  0.00000000       0.005
   0.00000000  0.03520428  0.00000000       0.005
   0.00000000  0.03285733  0.00000000       0.005
   0.00000000  0.03051038  0.00000000       0.005
   0.00000000  0.02816343  0.00000000       0.005
   0.00000000  0.02581648  0.00000000       0.005
   0.00000000  0.02346952  0.00000000       0.005
   0.00000000  0.02112257  0.00000000       0.005
   0.00000000  0.01877562  0.00000000       0.005
   0.00000000  0.01642867  0.00000000       0.005
   0.00000000  0.01408171  0.00000000       0.005
   0.00000000  0.01173476  0.00000000       0.005
   0.00000000  0.00938781  0.00000000       0.005
   0.00000000  0.00704086  0.00000000       0.005
   0.00000000  0.00469390  0.00000000       0.005
   0.00000000  0.00234695  0.00000000       0.005
   0.00000000  0.00000000  0.00000000       0.005
   0.00000000  0.00000000  0.00000000       0.005
   0.00135501  0.00234695  0.00000000       0.005
   0.00271003  0.00469390  0.00000000       0.005
   0.00406504  0.00704086  0.00000000       0.005
   0.00542005  0.00938781  0.00000000       0.005
   0.00677507  0.01173476  0.00000000       0.005
   0.00813008  0.01408171  0.00000000       0.005
   0.00948509  0.01642867  0.00000000       0.005
   0.01084011  0.01877562  0.00000000       0.005
   0.01219512  0.02112257  0.00000000       0.005
   0.01355014  0.02346952  0.00000000       0.005
   0.01490515  0.02581648  0.00000000       0.005
   0.01626016  0.02816343  0.00000000       0.005
   0.01761518  0.03051038  0.00000000       0.005
   0.01897019  0.03285733  0.00000000       0.005
   0.02032520  0.03520428  0.00000000       0.005
   0.02168022  0.03755124  0.00000000       0.005
   0.02303523  0.03989819  0.00000000       0.005
   0.02439024  0.04224514  0.00000000       0.005
   0.02574526  0.04459209  0.00000000       0.005
   0.02710027  0.04693905  0.00000000       0.005
   0.02845528  0.04928600  0.00000000       0.005
   0.02981030  0.05163295  0.00000000       0.005
   0.03116531  0.05397990  0.00000000       0.005
   0.03252033  0.05632686  0.00000000       0.005
   0.03387534  0.05867381  0.00000000       0.005
   0.03523035  0.06102076  0.00000000       0.005
   0.03658537  0.06336771  0.00000000       0.005
   0.03794038  0.06571466  0.00000000       0.005
   0.03929539  0.06806162  0.00000000       0.005
   0.04065041  0.07040857  0.00000000       0.005
   0.04200542  0.07275552  0.00000000       0.005
   0.04336043  0.07510247  0.00000000       0.005
   0.04471545  0.07744943  0.00000000       0.005
   0.04607046  0.07979638  0.00000000       0.005
   0.04742547  0.08214333  0.00000000       0.005
   0.04878049  0.08449028  0.00000000       0.005
   0.05013550  0.08683724  0.00000000       0.005
   0.05149051  0.08918419  0.00000000       0.005
   0.05284553  0.09153114  0.00000000       0.005
   0.05420054  0.09387809  0.00000000       0.005
   0.05555556  0.09622504  0.00000000       0.005
   0.05691057  0.09857200  0.00000000       0.005
   0.05826558  0.10091895  0.00000000       0.005
   0.05962060  0.10326590  0.00000000       0.005
   0.06097561  0.10561285  0.00000000       0.005
   0.06233062  0.10795981  0.00000000       0.005
   0.06368564  0.11030676  0.00000000       0.005
   0.06504065  0.11265371  0.00000000       0.005
   0.06639566  0.11500066  0.00000000       0.005
   0.06775068  0.11734762  0.00000000       0.005
   0.06910569  0.11969457  0.00000000       0.005
   0.07046070  0.12204152  0.00000000       0.005
   0.07181572  0.12438847  0.00000000       0.005
   0.07317073  0.12673542  0.00000000       0.005
   0.07452575  0.12908238  0.00000000       0.005
   0.07588076  0.13142933  0.00000000       0.005
   0.07723577  0.13377628  0.00000000       0.005
   0.07859079  0.13612323  0.00000000       0.005
   0.07994580  0.13847019  0.00000000       0.005
   0.08130081  0.14081714  0.00000000       0.005
   0.08265583  0.14316409  0.00000000       0.005
   0.08401084  0.14551104  0.00000000       0.005
   0.08536585  0.14785800  0.00000000       0.005
   0.08672087  0.15020495  0.00000000       0.005
   0.08807588  0.15255190  0.00000000       0.005
   0.08943089  0.15489885  0.00000000       0.005
   0.09078591  0.15724581  0.00000000       0.005
   0.09214092  0.15959276  0.00000000       0.005
   0.09349593  0.16193971  0.00000000       0.005
   0.09485095  0.16428666  0.00000000       0.005
   0.09620596  0.16663361  0.00000000       0.005
   0.09756098  0.16898057  0.00000000       0.005
   0.09891599  0.17132752  0.00000000       0.005
   0.10027100  0.17367447  0.00000000       0.005
   0.10162602  0.17602142  0.00000000       0.005
   0.10298103  0.17836838  0.00000000       0.005
   0.10433604  0.18071533  0.00000000       0.005
   0.10569106  0.18306228  0.00000000       0.005
   0.10704607  0.18540923  0.00000000       0.005
   0.10840108  0.18775619  0.00000000       0.005
   0.10975610  0.19010314  0.00000000       0.005
   0.11111111  0.19245009  0.00000000       0.005
   0.11246612  0.19479704  0.00000000       0.005
   0.11382114  0.19714399  0.00000000       0.005
   0.11517615  0.19949095  0.00000000       0.005
   0.11653117  0.20183790  0.00000000       0.005
   0.11788618  0.20418485  0.00000000       0.005
   0.11924119  0.20653180  0.00000000       0.005
   0.12059621  0.20887876  0.00000000       0.005
   0.12195122  0.21122571  0.00000000       0.005
   0.12330623  0.21357266  0.00000000       0.005
   0.12466125  0.21591961  0.00000000       0.005
   0.12601626  0.21826657  0.00000000       0.005
   0.12737127  0.22061352  0.00000000       0.005
   0.12872629  0.22296047  0.00000000       0.005
   0.13008130  0.22530742  0.00000000       0.005
   0.13143631  0.22765437  0.00000000       0.005
   0.13279133  0.23000133  0.00000000       0.005
   0.13414634  0.23234828  0.00000000       0.005
   0.13550136  0.23469523  0.00000000       0.005
 
 k-points in reciprocal lattice and weights: Graphene M-G-K                          
   0.50000000  1.00000000  0.00000000       0.005
   0.49500000  0.99000000  0.00000000       0.005
   0.49000000  0.98000000  0.00000000       0.005
   0.48500000  0.97000000  0.00000000       0.005
   0.48000000  0.96000000  0.00000000       0.005
   0.47500000  0.95000000  0.00000000       0.005
   0.47000000  0.94000000  0.00000000       0.005
   0.46500000  0.93000000  0.00000000       0.005
   0.46000000  0.92000000  0.00000000       0.005
   0.45500000  0.91000000  0.00000000       0.005
   0.45000000  0.90000000  0.00000000       0.005
   0.44500000  0.89000000  0.00000000       0.005
   0.44000000  0.88000000  0.00000000       0.005
   0.43500000  0.87000000  0.00000000       0.005
   0.43000000  0.86000000  0.00000000       0.005
   0.42500000  0.85000000  0.00000000       0.005
   0.42000000  0.84000000  0.00000000       0.005
   0.41500000  0.83000000  0.00000000       0.005
   0.41000000  0.82000000  0.00000000       0.005
   0.40500000  0.81000000  0.00000000       0.005
   0.40000000  0.80000000  0.00000000       0.005
   0.39500000  0.79000000  0.00000000       0.005
   0.39000000  0.78000000  0.00000000       0.005
   0.38500000  0.77000000  0.00000000       0.005
   0.38000000  0.76000000  0.00000000       0.005
   0.37500000  0.75000000  0.00000000       0.005
   0.37000000  0.74000000  0.00000000       0.005
   0.36500000  0.73000000  0.00000000       0.005
   0.36000000  0.72000000  0.00000000       0.005
   0.35500000  0.71000000  0.00000000       0.005
   0.35000000  0.70000000  0.00000000       0.005
   0.34500000  0.69000000  0.00000000       0.005
   0.34000000  0.68000000  0.00000000       0.005
   0.33500000  0.67000000  0.00000000       0.005
   0.33000000  0.66000000  0.00000000       0.005
   0.32500000  0.65000000  0.00000000       0.005
   0.32000000  0.64000000  0.00000000       0.005
   0.31500000  0.63000000  0.00000000       0.005
   0.31000000  0.62000000  0.00000000       0.005
   0.30500000  0.61000000  0.00000000       0.005
   0.30000000  0.60000000  0.00000000       0.005
   0.29500000  0.59000000  0.00000000       0.005
   0.29000000  0.58000000  0.00000000       0.005
   0.28500000  0.57000000  0.00000000       0.005
   0.28000000  0.56000000  0.00000000       0.005
   0.27500000  0.55000000  0.00000000       0.005
   0.27000000  0.54000000  0.00000000       0.005
   0.26500000  0.53000000  0.00000000       0.005
   0.26000000  0.52000000  0.00000000       0.005
   0.25500000  0.51000000  0.00000000       0.005
   0.25000000  0.50000000  0.00000000       0.005
   0.24500000  0.49000000  0.00000000       0.005
   0.24000000  0.48000000  0.00000000       0.005
   0.23500000  0.47000000  0.00000000       0.005
   0.23000000  0.46000000  0.00000000       0.005
   0.22500000  0.45000000  0.00000000       0.005
   0.22000000  0.44000000  0.00000000       0.005
   0.21500000  0.43000000  0.00000000       0.005
   0.21000000  0.42000000  0.00000000       0.005
   0.20500000  0.41000000  0.00000000       0.005
   0.20000000  0.40000000  0.00000000       0.005
   0.19500000  0.39000000  0.00000000       0.005
   0.19000000  0.38000000  0.00000000       0.005
   0.18500000  0.37000000  0.00000000       0.005
   0.18000000  0.36000000  0.00000000       0.005
   0.17500000  0.35000000  0.00000000       0.005
   0.17000000  0.34000000  0.00000000       0.005
   0.16500000  0.33000000  0.00000000       0.005
   0.16000000  0.32000000  0.00000000       0.005
   0.15500000  0.31000000  0.00000000       0.005
   0.15000000  0.30000000  0.00000000       0.005
   0.14500000  0.29000000  0.00000000       0.005
   0.14000000  0.28000000  0.00000000       0.005
   0.13500000  0.27000000  0.00000000       0.005
   0.13000000  0.26000000  0.00000000       0.005
   0.12500000  0.25000000  0.00000000       0.005
   0.12000000  0.24000000  0.00000000       0.005
   0.11500000  0.23000000  0.00000000       0.005
   0.11000000  0.22000000  0.00000000       0.005
   0.10500000  0.21000000  0.00000000       0.005
   0.10000000  0.20000000  0.00000000       0.005
   0.09500000  0.19000000  0.00000000       0.005
   0.09000000  0.18000000  0.00000000       0.005
   0.08500000  0.17000000  0.00000000       0.005
   0.08000000  0.16000000  0.00000000       0.005
   0.07500000  0.15000000  0.00000000       0.005
   0.07000000  0.14000000  0.00000000       0.005
   0.06500000  0.13000000  0.00000000       0.005
   0.06000000  0.12000000  0.00000000       0.005
   0.05500000  0.11000000  0.00000000       0.005
   0.05000000  0.10000000  0.00000000       0.005
   0.04500000  0.09000000  0.00000000       0.005
   0.04000000  0.08000000  0.00000000       0.005
   0.03500000  0.07000000  0.00000000       0.005
   0.03000000  0.06000000  0.00000000       0.005
   0.02500000  0.05000000  0.00000000       0.005
   0.02000000  0.04000000  0.00000000       0.005
   0.01500000  0.03000000  0.00000000       0.005
   0.01000000  0.02000000  0.00000000       0.005
   0.00500000  0.01000000  0.00000000       0.005
   0.00000000  0.00000000  0.00000000       0.005
   0.00000000  0.00000000  0.00000000       0.005
   0.01333333  0.00333333  0.00000000       0.005
   0.02666667  0.00666667  0.00000000       0.005
   0.04000000  0.01000000  0.00000000       0.005
   0.05333333  0.01333333  0.00000000       0.005
   0.06666667  0.01666667  0.00000000       0.005
   0.08000000  0.02000000  0.00000000       0.005
   0.09333333  0.02333333  0.00000000       0.005
   0.10666667  0.02666667  0.00000000       0.005
   0.12000000  0.03000000  0.00000000       0.005
   0.13333333  0.03333333  0.00000000       0.005
   0.14666667  0.03666667  0.00000000       0.005
   0.16000000  0.04000000  0.00000000       0.005
   0.17333333  0.04333333  0.00000000       0.005
   0.18666667  0.04666667  0.00000000       0.005
   0.20000000  0.05000000  0.00000000       0.005
   0.21333333  0.05333333  0.00000000       0.005
   0.22666667  0.05666667  0.00000000       0.005
   0.24000000  0.06000000  0.00000000       0.005
   0.25333333  0.06333333  0.00000000       0.005
   0.26666667  0.06666667  0.00000000       0.005
   0.28000000  0.07000000  0.00000000       0.005
   0.29333333  0.07333333  0.00000000       0.005
   0.30666667  0.07666667  0.00000000       0.005
   0.32000000  0.08000000  0.00000000       0.005
   0.33333333  0.08333333  0.00000000       0.005
   0.34666667  0.08666667  0.00000000       0.005
   0.36000000  0.09000000  0.00000000       0.005
   0.37333333  0.09333333  0.00000000       0.005
   0.38666667  0.09666667  0.00000000       0.005
   0.40000000  0.10000000  0.00000000       0.005
   0.41333333  0.10333333  0.00000000       0.005
   0.42666667  0.10666667  0.00000000       0.005
   0.44000000  0.11000000  0.00000000       0.005
   0.45333333  0.11333333  0.00000000       0.005
   0.46666667  0.11666667  0.00000000       0.005
   0.48000000  0.12000000  0.00000000       0.005
   0.49333333  0.12333333  0.00000000       0.005
   0.50666667  0.12666667  0.00000000       0.005
   0.52000000  0.13000000  0.00000000       0.005
   0.53333333  0.13333333  0.00000000       0.005
   0.54666667  0.13666667  0.00000000       0.005
   0.56000000  0.14000000  0.00000000       0.005
   0.57333333  0.14333333  0.00000000       0.005
   0.58666667  0.14666667  0.00000000       0.005
   0.60000000  0.15000000  0.00000000       0.005
   0.61333333  0.15333333  0.00000000       0.005
   0.62666667  0.15666667  0.00000000       0.005
   0.64000000  0.16000000  0.00000000       0.005
   0.65333333  0.16333333  0.00000000       0.005
   0.66666667  0.16666667  0.00000000       0.005
   0.68000000  0.17000000  0.00000000       0.005
   0.69333333  0.17333333  0.00000000       0.005
   0.70666667  0.17666667  0.00000000       0.005
   0.72000000  0.18000000  0.00000000       0.005
   0.73333333  0.18333333  0.00000000       0.005
   0.74666667  0.18666667  0.00000000       0.005
   0.76000000  0.19000000  0.00000000       0.005
   0.77333333  0.19333333  0.00000000       0.005
   0.78666667  0.19666667  0.00000000       0.005
   0.80000000  0.20000000  0.00000000       0.005
   0.81333333  0.20333333  0.00000000       0.005
   0.82666667  0.20666667  0.00000000       0.005
   0.84000000  0.21000000  0.00000000       0.005
   0.85333333  0.21333333  0.00000000       0.005
   0.86666667  0.21666667  0.00000000       0.005
   0.88000000  0.22000000  0.00000000       0.005
   0.89333333  0.22333333  0.00000000       0.005
   0.90666667  0.22666667  0.00000000       0.005
   0.92000000  0.23000000  0.00000000       0.005
   0.93333333  0.23333333  0.00000000       0.005
   0.94666667  0.23666667  0.00000000       0.005
   0.96000000  0.24000000  0.00000000       0.005
   0.97333333  0.24333333  0.00000000       0.005
   0.98666667  0.24666667  0.00000000       0.005
   1.00000000  0.25000000  0.00000000       0.005
   1.01333333  0.25333333  0.00000000       0.005
   1.02666667  0.25666667  0.00000000       0.005
   1.04000000  0.26000000  0.00000000       0.005
   1.05333333  0.26333333  0.00000000       0.005
   1.06666667  0.26666667  0.00000000       0.005
   1.08000000  0.27000000  0.00000000       0.005
   1.09333333  0.27333333  0.00000000       0.005
   1.10666667  0.27666667  0.00000000       0.005
   1.12000000  0.28000000  0.00000000       0.005
   1.13333333  0.28333333  0.00000000       0.005
   1.14666667  0.28666667  0.00000000       0.005
   1.16000000  0.29000000  0.00000000       0.005
   1.17333333  0.29333333  0.00000000       0.005
   1.18666667  0.29666667  0.00000000       0.005
   1.20000000  0.30000000  0.00000000       0.005
   1.21333333  0.30333333  0.00000000       0.005
   1.22666667  0.30666667  0.00000000       0.005
   1.24000000  0.31000000  0.00000000       0.005
   1.25333333  0.31333333  0.00000000       0.005
   1.26666667  0.31666667  0.00000000       0.005
   1.28000000  0.32000000  0.00000000       0.005
   1.29333333  0.32333333  0.00000000       0.005
   1.30666667  0.32666667  0.00000000       0.005
   1.32000000  0.33000000  0.00000000       0.005
   1.33333333  0.33333333  0.00000000       0.005
 
 position of ions in fractional coordinates (direct lattice) 
   0.00000000  0.00000000  0.50000000
   0.28571429  0.85714286  0.50000000
   0.57142857  0.71428571  0.50000000
   0.85714286  0.57142857  0.50000000
   0.14285714  0.42857143  0.50000000
   0.42857143  0.28571429  0.50000000
   0.71428571  0.14285714  0.50000000
   0.23809524  0.04761905  0.50000000
   0.52380952  0.90476190  0.50000000
   0.80952381  0.76190476  0.50000000
   0.09523810  0.61904762  0.50000000
   0.38095238  0.47619048  0.50000000
   0.66666667  0.33333333  0.50000000
   0.95238095  0.19047619  0.50000000
 
 position of ions in cartesian coordinates  (Angst):
   0.00000000  0.00000000  5.00000000
  -2.46000000  4.26084499  5.00000000
  -0.00000000  4.26084499  5.00000000
   2.46000000  4.26084499  5.00000000
  -1.23000000  2.13042249  5.00000000
   1.23000000  2.13042249  5.00000000
   3.69000000  2.13042249  5.00000000
   1.23000000  0.71014083  5.00000000
  -1.23000000  4.97098582  5.00000000
   1.23000000  4.97098582  5.00000000
  -2.46000000  2.84056332  5.00000000
   0.00000000  2.84056332  5.00000000
   2.46000000  2.84056332  5.00000000
   4.92000000  2.84056332  5.00000000
 


--------------------------------------------------------------------------------------------------------


 k-point  1 :   0.5000 1.0000 0.0000  plane waves:    6628
 k-point  2 :   0.4950 0.9900 0.0000  plane waves:    6644
 k-point  3 :   0.4900 0.9800 0.0000  plane waves:    6639
 k-point  4 :   0.4850 0.9700 0.0000  plane waves:    6642
 k-point  5 :   0.4800 0.9600 0.0000  plane waves:    6644
 k-point  6 :   0.4750 0.9500 0.0000  plane waves:    6654
 k-point  7 :   0.4700 0.9400 0.0000  plane waves:    6651
 k-point  8 :   0.4650 0.9300 0.0000  plane waves:    6657
 k-point  9 :   0.4600 0.9200 0.0000  plane waves:    6650
 k-point 10 :   0.4550 0.9100 0.0000  plane waves:    6654
 k-point 11 :   0.4500 0.9000 0.0000  plane waves:    6656
 k-point 12 :   0.4450 0.8900 0.0000  plane waves:    6658
 k-point 13 :   0.4400 0.8800 0.0000  plane waves:    6656
 k-point 14 :   0.4350 0.8700 0.0000  plane waves:    6651
 k-point 15 :   0.4300 0.8600 0.0000  plane waves:    6654
 k-point 16 :   0.4250 0.8500 0.0000  plane waves:    6655
 k-point 17 :   0.4200 0.8400 0.0000  plane waves:    6656
 k-point 18 :   0.4150 0.8300 0.0000  plane waves:    6659
 k-point 19 :   0.4100 0.8200 0.0000  plane waves:    6667
 k-point 20 :   0.4050 0.8100 0.0000  plane waves:    6667
 k-point 21 :   0.4000 0.8000 0.0000  plane waves:    6669
 k-point 22 :   0.3950 0.7900 0.0000  plane waves:    6663
 k-point 23 :   0.3900 0.7800 0.0000  plane waves:    6659
 k-point 24 :   0.3850 0.7700 0.0000  plane waves:    6653
 k-point 25 :   0.3800 0.7600 0.0000  plane waves:    6658
 k-point 26 :   0.3750 0.7500 0.0000  plane waves:    6661
 k-point 27 :   0.3700 0.7400 0.0000  plane waves:    6651
 k-point 28 :   0.3650 0.7300 0.0000  plane waves:    6652
 k-point 29 :   0.3600 0.7200 0.0000  plane waves:    6658
 k-point 30 :   0.3550 0.7100 0.0000  plane waves:    6656
 k-point 31 :   0.3500 0.7000 0.0000  plane waves:    6658
 k-point 32 :   0.3450 0.6900 0.0000  plane waves:    6659
 k-point 33 :   0.3400 0.6800 0.0000  plane waves:    6656
 k-point 34 :   0.3350 0.6700 0.0000  plane waves:    6660
 k-point 35 :   0.3300 0.6600 0.0000  plane waves:    6656
 k-point 36 :   0.3250 0.6500 0.0000  plane waves:    6656
 k-point 37 :   0.3200 0.6400 0.0000  plane waves:    6661
 k-point 38 :   0.3150 0.6300 0.0000  plane waves:    6665
 k-point 39 :   0.3100 0.6200 0.0000  plane waves:    6666
 k-point 40 :   0.3050 0.6100 0.0000  plane waves:    6659
 k-point 41 :   0.3000 0.6000 0.0000  plane waves:    6658
 k-point 42 :   0.2950 0.5900 0.0000  plane waves:    6645
 k-point 43 :   0.2900 0.5800 0.0000  plane waves:    6650
 k-point 44 :   0.2850 0.5700 0.0000  plane waves:    6656
 k-point 45 :   0.2800 0.5600 0.0000  plane waves:    6658
 k-point 46 :   0.2750 0.5500 0.0000  plane waves:    6653
 k-point 47 :   0.2700 0.5400 0.0000  plane waves:    6653
 k-point 48 :   0.2650 0.5300 0.0000  plane waves:    6656
 k-point 49 :   0.2600 0.5200 0.0000  plane waves:    6662
 k-point 50 :   0.2550 0.5100 0.0000  plane waves:    6668
 k-point 51 :   0.2500 0.5000 0.0000  plane waves:    6669
 k-point 52 :   0.2450 0.4900 0.0000  plane waves:    6672
 k-point 53 :   0.2400 0.4800 0.0000  plane waves:    6678
 k-point 54 :   0.2350 0.4700 0.0000  plane waves:    6671
 k-point 55 :   0.2300 0.4600 0.0000  plane waves:    6660
 k-point 56 :   0.2250 0.4500 0.0000  plane waves:    6659
 k-point 57 :   0.2200 0.4400 0.0000  plane waves:    6662
 k-point 58 :   0.2150 0.4300 0.0000  plane waves:    6660
 k-point 59 :   0.2100 0.4200 0.0000  plane waves:    6656
 k-point 60 :   0.2050 0.4100 0.0000  plane waves:    6657
 k-point 61 :   0.2000 0.4000 0.0000  plane waves:    6662
 k-point 62 :   0.1950 0.3900 0.0000  plane waves:    6658
 k-point 63 :   0.1900 0.3800 0.0000  plane waves:    6660
 k-point 64 :   0.1850 0.3700 0.0000  plane waves:    6661
 k-point 65 :   0.1800 0.3600 0.0000  plane waves:    6656
 k-point 66 :   0.1750 0.3500 0.0000  plane waves:    6663
 k-point 67 :   0.1700 0.3400 0.0000  plane waves:    6662
 k-point 68 :   0.1650 0.3300 0.0000  plane waves:    6660
 k-point 69 :   0.1600 0.3200 0.0000  plane waves:    6659
 k-point 70 :   0.1550 0.3100 0.0000  plane waves:    6653
 k-point 71 :   0.1500 0.3000 0.0000  plane waves:    6653
 k-point 72 :   0.1450 0.2900 0.0000  plane waves:    6657
 k-point 73 :   0.1400 0.2800 0.0000  plane waves:    6659
 k-point 74 :   0.1350 0.2700 0.0000  plane waves:    6655
 k-point 75 :   0.1300 0.2600 0.0000  plane waves:    6652
 k-point 76 :   0.1250 0.2500 0.0000  plane waves:    6661
 k-point 77 :   0.1200 0.2400 0.0000  plane waves:    6667
 k-point 78 :   0.1150 0.2300 0.0000  plane waves:    6665
 k-point 79 :   0.1100 0.2200 0.0000  plane waves:    6656
 k-point 80 :   0.1050 0.2100 0.0000  plane waves:    6660
 k-point 81 :   0.1000 0.2000 0.0000  plane waves:    6662
 k-point 82 :   0.0950 0.1900 0.0000  plane waves:    6675
 k-point 83 :   0.0900 0.1800 0.0000  plane waves:    6671
 k-point 84 :   0.0850 0.1700 0.0000  plane waves:    6677
 k-point 85 :   0.0800 0.1600 0.0000  plane waves:    6673
 k-point 86 :   0.0750 0.1500 0.0000  plane waves:    6678
 k-point 87 :   0.0700 0.1400 0.0000  plane waves:    6686
 k-point 88 :   0.0650 0.1300 0.0000  plane waves:    6684
 k-point 89 :   0.0600 0.1200 0.0000  plane waves:    6688
 k-point 90 :   0.0550 0.1100 0.0000  plane waves:    6686
 k-point 91 :   0.0500 0.1000 0.0000  plane waves:    6702
 k-point 92 :   0.0450 0.0900 0.0000  plane waves:    6706
 k-point 93 :   0.0400 0.0800 0.0000  plane waves:    6706
 k-point 94 :   0.0350 0.0700 0.0000  plane waves:    6704
 k-point 95 :   0.0300 0.0600 0.0000  plane waves:    6710
 k-point 96 :   0.0250 0.0500 0.0000  plane waves:    6717
 k-point 97 :   0.0200 0.0400 0.0000  plane waves:    6721
 k-point 98 :   0.0150 0.0300 0.0000  plane waves:    6728
 k-point 99 :   0.0100 0.0200 0.0000  plane waves:    6737
 k-point ** :   0.0050 0.0100 0.0000  plane waves:    6733
 k-point ** :   0.0000 0.0000 0.0000  plane waves:    6765
 k-point ** :   0.0000 0.0000 0.0000  plane waves:    6765
 k-point ** :   0.0133 0.0033 0.0000  plane waves:    6731
 k-point ** :   0.0267 0.0067 0.0000  plane waves:    6729
 k-point ** :   0.0400 0.0100 0.0000  plane waves:    6726
 k-point ** :   0.0533 0.0133 0.0000  plane waves:    6714
 k-point ** :   0.0667 0.0167 0.0000  plane waves:    6710
 k-point ** :   0.0800 0.0200 0.0000  plane waves:    6710
 k-point ** :   0.0933 0.0233 0.0000  plane waves:    6704
 k-point ** :   0.1067 0.0267 0.0000  plane waves:    6696
 k-point ** :   0.1200 0.0300 0.0000  plane waves:    6694
 k-point ** :   0.1333 0.0333 0.0000  plane waves:    6694
 k-point ** :   0.1467 0.0367 0.0000  plane waves:    6694
 k-point ** :   0.1600 0.0400 0.0000  plane waves:    6693
 k-point ** :   0.1733 0.0433 0.0000  plane waves:    6688
 k-point ** :   0.1867 0.0467 0.0000  plane waves:    6684
 k-point ** :   0.2000 0.0500 0.0000  plane waves:    6680
 k-point ** :   0.2133 0.0533 0.0000  plane waves:    6678
 k-point ** :   0.2267 0.0567 0.0000  plane waves:    6678
 k-point ** :   0.2400 0.0600 0.0000  plane waves:    6672
 k-point ** :   0.2533 0.0633 0.0000  plane waves:    6667
 k-point ** :   0.2667 0.0667 0.0000  plane waves:    6662
 k-point ** :   0.2800 0.0700 0.0000  plane waves:    6662
 k-point ** :   0.2933 0.0733 0.0000  plane waves:    6658
 k-point ** :   0.3067 0.0767 0.0000  plane waves:    6660
 k-point ** :   0.3200 0.0800 0.0000  plane waves:    6659
 k-point ** :   0.3333 0.0833 0.0000  plane waves:    6664
 k-point ** :   0.3467 0.0867 0.0000  plane waves:    6654
 k-point ** :   0.3600 0.0900 0.0000  plane waves:    6656
 k-point ** :   0.3733 0.0933 0.0000  plane waves:    6652
 k-point ** :   0.3867 0.0967 0.0000  plane waves:    6656
 k-point ** :   0.4000 0.1000 0.0000  plane waves:    6657
 k-point ** :   0.4133 0.1033 0.0000  plane waves:    6654
 k-point ** :   0.4267 0.1067 0.0000  plane waves:    6647
 k-point ** :   0.4400 0.1100 0.0000  plane waves:    6636
 k-point ** :   0.4533 0.1133 0.0000  plane waves:    6643
 k-point ** :   0.4667 0.1167 0.0000  plane waves:    6656
 k-point ** :   0.4800 0.1200 0.0000  plane waves:    6656
 k-point ** :   0.4933 0.1233 0.0000  plane waves:    6655
 k-point ** :   0.5067 0.1267 0.0000  plane waves:    6656
 k-point ** :   0.5200 0.1300 0.0000  plane waves:    6662
 k-point ** :   0.5333 0.1333 0.0000  plane waves:    6652
 k-point ** :   0.5467 0.1367 0.0000  plane waves:    6653
 k-point ** :   0.5600 0.1400 0.0000  plane waves:    6653
 k-point ** :   0.5733 0.1433 0.0000  plane waves:    6660
 k-point ** :   0.5867 0.1467 0.0000  plane waves:    6655
 k-point ** :   0.6000 0.1500 0.0000  plane waves:    6659
 k-point ** :   0.6133 0.1533 0.0000  plane waves:    6659
 k-point ** :   0.6267 0.1567 0.0000  plane waves:    6653
 k-point ** :   0.6400 0.1600 0.0000  plane waves:    6662
 k-point ** :   0.6533 0.1633 0.0000  plane waves:    6663
 k-point ** :   0.6667 0.1667 0.0000  plane waves:    6665
 k-point ** :   0.6800 0.1700 0.0000  plane waves:    6665
 k-point ** :   0.6933 0.1733 0.0000  plane waves:    6667
 k-point ** :   0.7067 0.1767 0.0000  plane waves:    6670
 k-point ** :   0.7200 0.1800 0.0000  plane waves:    6669
 k-point ** :   0.7333 0.1833 0.0000  plane waves:    6673
 k-point ** :   0.7467 0.1867 0.0000  plane waves:    6679
 k-point ** :   0.7600 0.1900 0.0000  plane waves:    6682
 k-point ** :   0.7733 0.1933 0.0000  plane waves:    6686
 k-point ** :   0.7867 0.1967 0.0000  plane waves:    6694
 k-point ** :   0.8000 0.2000 0.0000  plane waves:    6692
 k-point ** :   0.8133 0.2033 0.0000  plane waves:    6696
 k-point ** :   0.8267 0.2067 0.0000  plane waves:    6695
 k-point ** :   0.8400 0.2100 0.0000  plane waves:    6690
 k-point ** :   0.8533 0.2133 0.0000  plane waves:    6686
 k-point ** :   0.8667 0.2167 0.0000  plane waves:    6684
 k-point ** :   0.8800 0.2200 0.0000  plane waves:    6685
 k-point ** :   0.8933 0.2233 0.0000  plane waves:    6687
 k-point ** :   0.9067 0.2267 0.0000  plane waves:    6686
 k-point ** :   0.9200 0.2300 0.0000  plane waves:    6676
 k-point ** :   0.9333 0.2333 0.0000  plane waves:    6677
 k-point ** :   0.9467 0.2367 0.0000  plane waves:    6680
 k-point ** :   0.9600 0.2400 0.0000  plane waves:    6680
 k-point ** :   0.9733 0.2433 0.0000  plane waves:    6684
 k-point ** :   0.9867 0.2467 0.0000  plane waves:    6682
 k-point ** :   1.0000 0.2500 0.0000  plane waves:    6674
 k-point ** :   1.0133 0.2533 0.0000  plane waves:    6680
 k-point ** :   1.0267 0.2567 0.0000  plane waves:    6680
 k-point ** :   1.0400 0.2600 0.0000  plane waves:    6672
 k-point ** :   1.0533 0.2633 0.0000  plane waves:    6668
 k-point ** :   1.0667 0.2667 0.0000  plane waves:    6662
 k-point ** :   1.0800 0.2700 0.0000  plane waves:    6658
 k-point ** :   1.0933 0.2733 0.0000  plane waves:    6654
 k-point ** :   1.1067 0.2767 0.0000  plane waves:    6655
 k-point ** :   1.1200 0.2800 0.0000  plane waves:    6652
 k-point ** :   1.1333 0.2833 0.0000  plane waves:    6649
 k-point ** :   1.1467 0.2867 0.0000  plane waves:    6654
 k-point ** :   1.1600 0.2900 0.0000  plane waves:    6653
 k-point ** :   1.1733 0.2933 0.0000  plane waves:    6647
 k-point ** :   1.1867 0.2967 0.0000  plane waves:    6653
 k-point ** :   1.2000 0.3000 0.0000  plane waves:    6663
 k-point ** :   1.2133 0.3033 0.0000  plane waves:    6663
 k-point ** :   1.2267 0.3067 0.0000  plane waves:    6663
 k-point ** :   1.2400 0.3100 0.0000  plane waves:    6666
 k-point ** :   1.2533 0.3133 0.0000  plane waves:    6667
 k-point ** :   1.2667 0.3167 0.0000  plane waves:    6667
 k-point ** :   1.2800 0.3200 0.0000  plane waves:    6665
 k-point ** :   1.2933 0.3233 0.0000  plane waves:    6672
 k-point ** :   1.3067 0.3267 0.0000  plane waves:    6672
 k-point ** :   1.3200 0.3300 0.0000  plane waves:    6674
 k-point ** :   1.3333 0.3333 0.0000  plane waves:    6672

 maximum and minimum number of plane-waves per node :      6765     6628

 maximum number of plane-waves:      6765
 maximum index in each direction: 
   IXMAX=   10   IYMAX=   10   IZMAX=   16
   IXMIN=  -11   IYMIN=  -11   IZMIN=  -16


 serial   3D FFT for wavefunctions
 parallel 3D FFT for charge:
    minimum data exchange during FFTs selected (reduces bandwidth)


 total amount of memory used by VASP MPI-rank0   242472. kBytes
=======================================================================

   base      :      30000. kBytes
   nonlr-proj:       1551. kBytes
   fftplans  :       3708. kBytes
   grid      :       7045. kBytes
   one-center:         43. kBytes
   wavefun   :     200125. kBytes
 
     INWAV:  cpu time    0.0000: real time    0.0070
 initial charge density was supplied:
 number of electron      55.9999996 magnetization 
 keeping initial charge density in first step


--------------------------------------------------------------------------------------------------------


 Maximum index for non-local projection operator         1267
 Maximum index for augmentation-charges          412 (set IRDMAX)


--------------------------------------------------------------------------------------------------------


 First call to EWALD:  gamma=   0.248
 Maximum number of real-space cells 3x 3x 2
 Maximum number of reciprocal cells 3x 3x 4

    FEWALD:  cpu time    0.0018: real time    0.0017


----------------------------------------- Iteration    1(   1)  ---------------------------------------


    POTLOK:  cpu time    0.0150: real time    0.0252
    SETDIJ:  cpu time    0.0025: real time    0.0063
     EDDAV:  cpu time   17.0332: real time   19.9443
       DOS:  cpu time    0.0008: real time    0.0008
    --------------------------------------------
      LOOP:  cpu time   17.0536: real time   19.9786

 eigenvalue-minimisations  : 14600
 total energy-change (2. order) : 0.3473612E+03  (-0.2007140E+04)
 number of electron      55.9999996 magnetization 
 augmentation part       55.9999996 magnetization 

 Free energy of the ion-electron system (eV)
  ---------------------------------------------------
  alpha Z        PSCENC =        40.48311427
  Ewald energy   TEWEN  =      2671.73310671
  -Hartree energ DENC   =     -4501.89934337
  -exchange      EXHF   =         0.00000000
  -V(xc)+E(xc)   XCENC  =       202.99541237
  PAW double counting   =       986.45493963    -1004.45799448
  entropy T*S    EENTRO =        -0.00419553
  eigenvalues    EBANDS =      -101.16711894
  atomic energy  EATOM  =      2053.22324326
  Solvation  Ediel_sol  =         0.00000000
  ---------------------------------------------------
  free energy    TOTEN  =       347.36116393 eV

  energy without entropy =      347.36535946  energy(sigma->0) =      347.36326169


--------------------------------------------------------------------------------------------------------




----------------------------------------- Iteration    1(   2)  ---------------------------------------


     EDDAV:  cpu time   22.8300: real time   24.2370
       DOS:  cpu time    0.0007: real time    0.0007
    --------------------------------------------
      LOOP:  cpu time   22.8316: real time   24.2381

 eigenvalue-minimisations  : 21672
 total energy-change (2. order) :-0.4313815E+03  (-0.4158562E+03)
 number of electron      55.9999996 magnetization 
 augmentation part       55.9999996 magnetization 

 Free energy of the ion-electron system (eV)
  ---------------------------------------------------
  alpha Z        PSCENC =        40.48311427
  Ewald energy   TEWEN  =      2671.73310671
  -Hartree energ DENC   =     -4501.89934337
  -exchange      EXHF   =         0.00000000
  -V(xc)+E(xc)   XCENC  =       202.99541237
  PAW double counting   =       986.45493963    -1004.45799448
  entropy T*S    EENTRO =        -0.00000568
  eigenvalues    EBANDS =      -532.55278497
  atomic energy  EATOM  =      2053.22324326
  Solvation  Ediel_sol  =         0.00000000
  ---------------------------------------------------
  free energy    TOTEN  =       -84.02031225 eV

  energy without entropy =      -84.02030658  energy(sigma->0) =      -84.02030941


--------------------------------------------------------------------------------------------------------




----------------------------------------- Iteration    1(   3)  ---------------------------------------


     EDDAV:  cpu time   19.2035: real time   20.6080
       DOS:  cpu time    0.0008: real time    0.0007
    --------------------------------------------
      LOOP:  cpu time   19.2052: real time   20.6090

 eigenvalue-minimisations  : 16912
 total energy-change (2. order) :-0.5623376E+02  (-0.5594498E+02)
 number of electron      55.9999996 magnetization 
 augmentation part       55.9999996 magnetization 

 Free energy of the ion-electron system (eV)
  ---------------------------------------------------
  alpha Z        PSCENC =        40.48311427
  Ewald energy   TEWEN  =      2671.73310671
  -Hartree energ DENC   =     -4501.89934337
  -exchange      EXHF   =         0.00000000
  -V(xc)+E(xc)   XCENC  =       202.99541237
  PAW double counting   =       986.45493963    -1004.45799448
  entropy T*S    EENTRO =        -0.00023457
  eigenvalues    EBANDS =      -588.78632060
  atomic energy  EATOM  =      2053.22324326
  Solvation  Ediel_sol  =         0.00000000
  ---------------------------------------------------
  free energy    TOTEN  =      -140.25407677 eV

  energy without entropy =     -140.25384221  energy(sigma->0) =     -140.25395949


--------------------------------------------------------------------------------------------------------




----------------------------------------- Iteration    1(   4)  ---------------------------------------


     EDDAV:  cpu time   19.5672: real time   20.9767
       DOS:  cpu time    0.0007: real time    0.0007
    --------------------------------------------
      LOOP:  cpu time   19.5682: real time   20.9779

 eigenvalue-minimisations  : 17500
 total energy-change (2. order) :-0.1393055E+01  (-0.1388685E+01)
 number of electron      55.9999996 magnetization 
 augmentation part       55.9999996 magnetization 

 Free energy of the ion-electron system (eV)
  ---------------------------------------------------
  alpha Z        PSCENC =        40.48311427
  Ewald energy   TEWEN  =      2671.73310671
  -Hartree energ DENC   =     -4501.89934337
  -exchange      EXHF   =         0.00000000
  -V(xc)+E(xc)   XCENC  =       202.99541237
  PAW double counting   =       986.45493963    -1004.45799448
  entropy T*S    EENTRO =        -0.00029502
  eigenvalues    EBANDS =      -590.17931491
  atomic energy  EATOM  =      2053.22324326
  Solvation  Ediel_sol  =         0.00000000
  ---------------------------------------------------
  free energy    TOTEN  =      -141.64713153 eV

  energy without entropy =     -141.64683652  energy(sigma->0) =     -141.64698403


--------------------------------------------------------------------------------------------------------




----------------------------------------- Iteration    1(   5)  ---------------------------------------


     EDDAV:  cpu time   20.9415: real time   22.3633
       DOS:  cpu time    0.0008: real time    0.0007
    --------------------------------------------
      LOOP:  cpu time   20.9432: real time   22.3643

 eigenvalue-minimisations  : 19612
 total energy-change (2. order) :-0.3976125E-01  (-0.3973352E-01)
 number of electron      55.9999996 magnetization 
 augmentation part       55.9999996 magnetization 

 Free energy of the ion-electron system (eV)
  ---------------------------------------------------
  alpha Z        PSCENC =        40.48311427
  Ewald energy   TEWEN  =      2671.73310671
  -Hartree energ DENC   =     -4501.89934337
  -exchange      EXHF   =         0.00000000
  -V(xc)+E(xc)   XCENC  =       202.99541237
  PAW double counting   =       986.45493963    -1004.45799448
  entropy T*S    EENTRO =        -0.00029512
  eigenvalues    EBANDS =      -590.21907606
  atomic energy  EATOM  =      2053.22324326
  Solvation  Ediel_sol  =         0.00000000
  ---------------------------------------------------
  free energy    TOTEN  =      -141.68689278 eV

  energy without entropy =     -141.68659766  energy(sigma->0) =     -141.68674522


--------------------------------------------------------------------------------------------------------




----------------------------------------- Iteration    1(   6)  ---------------------------------------


    EDDIAG:  cpu time    1.3513: real time    1.3623
  RMM-DIIS:  cpu time    8.7305: real time    8.8565
    ORTHCH:  cpu time    1.0682: real time    1.9683
       DOS:  cpu time    0.0008: real time    0.0007
    --------------------------------------------
      LOOP:  cpu time   11.1513: real time   12.1884

 eigenvalue-minimisations  : 15934
 total energy-change (2. order) :-0.1008286E-02  (-0.1008286E-02)
 number of electron      55.9999996 magnetization 
 augmentation part       55.9999996 magnetization 

 Free energy of the ion-electron system (eV)
  ---------------------------------------------------
  alpha Z        PSCENC =        40.48311427
  Ewald energy   TEWEN  =      2671.73310671
  -Hartree energ DENC   =     -4501.89934337
  -exchange      EXHF   =         0.00000000
  -V(xc)+E(xc)   XCENC  =       202.99541237
  PAW double counting   =       986.45493963    -1004.45799448
  entropy T*S    EENTRO =        -0.00029512
  eigenvalues    EBANDS =      -590.22008434
  atomic energy  EATOM  =      2053.22324326
  Solvation  Ediel_sol  =         0.00000000
  ---------------------------------------------------
  free energy    TOTEN  =      -141.68790107 eV

  energy without entropy =     -141.68760595  energy(sigma->0) =     -141.68775351


--------------------------------------------------------------------------------------------------------




----------------------------------------- Iteration    1(   7)  ---------------------------------------


    EDDIAG:  cpu time    1.3748: real time    1.3885
  RMM-DIIS:  cpu time   13.0478: real time   13.1840
    ORTHCH:  cpu time    1.0679: real time    1.9621
       DOS:  cpu time    0.0009: real time    0.0008
    --------------------------------------------
      LOOP:  cpu time   15.4916: real time   16.5357

 eigenvalue-minimisations  : 22308
 total energy-change (2. order) :-0.1243811E-03  (-0.1238057E-03)
 number of electron      55.9999996 magnetization 
 augmentation part       55.9999996 magnetization 

 Free energy of the ion-electron system (eV)
  ---------------------------------------------------
  alpha Z        PSCENC =        40.48311427
  Ewald energy   TEWEN  =      2671.73310671
  -Hartree energ DENC   =     -4501.89934337
  -exchange      EXHF   =         0.00000000
  -V(xc)+E(xc)   XCENC  =       202.99541237
  PAW double counting   =       986.45493963    -1004.45799448
  entropy T*S    EENTRO =        -0.00029512
  eigenvalues    EBANDS =      -590.22020873
  atomic energy  EATOM  =      2053.22324326
  Solvation  Ediel_sol  =         0.00000000
  ---------------------------------------------------
  free energy    TOTEN  =      -141.68802545 eV

  energy without entropy =     -141.68773033  energy(sigma->0) =     -141.68787789


--------------------------------------------------------------------------------------------------------




----------------------------------------- Iteration    1(   8)  ---------------------------------------


    EDDIAG:  cpu time    1.3558: real time    1.3663
  RMM-DIIS:  cpu time    7.3731: real time    7.5420
    ORTHCH:  cpu time    1.0593: real time    1.9549
       DOS:  cpu time    0.0009: real time    0.0008
    --------------------------------------------
      LOOP:  cpu time    9.7894: real time   10.8643

 eigenvalue-minimisations  : 13420
 total energy-change (2. order) :-0.7802337E-06  (-0.9691096E-06)
 number of electron      55.9999996 magnetization 
 augmentation part       55.9999996 magnetization 

 Free energy of the ion-electron system (eV)
  ---------------------------------------------------
  alpha Z        PSCENC =        40.48311427
  Ewald energy   TEWEN  =      2671.73310671
  -Hartree energ DENC   =     -4501.89934337
  -exchange      EXHF   =         0.00000000
  -V(xc)+E(xc)   XCENC  =       202.99541237
  PAW double counting   =       986.45493963    -1004.45799448
  entropy T*S    EENTRO =        -0.00029512
  eigenvalues    EBANDS =      -590.22020951
  atomic energy  EATOM  =      2053.22324326
  Solvation  Ediel_sol  =         0.00000000
  ---------------------------------------------------
  free energy    TOTEN  =      -141.68802623 eV

  energy without entropy =     -141.68773111  energy(sigma->0) =     -141.68787867


--------------------------------------------------------------------------------------------------------




 average (electrostatic) potential at core
  the test charge radii are     0.6991
  (the norm of the test charge is              1.0000)
       1 -61.0313       2 -61.0312       3 -61.0312       4 -61.0312       5 -61.0312
       6 -61.0312       7 -61.0313       8 -61.0313       9 -61.0312      10 -61.0313
      11 -61.0312      12 -61.0311      13 -61.0311      14 -61.0313
 
 
 
 E-fermi :  -1.4386     XC(G=0):  -4.3708     alpha+bet : -3.8974


 k-point     1 :       0.5000    1.0000    0.0000
  band No.  band energies     occupation 
      1     -19.9653      2.00000
      2     -19.9651      2.00000
      3     -18.3146      2.00000
      4     -18.3145      2.00000
      5     -15.5042      2.00000
      6     -15.2363      2.00000
      7     -15.2362      2.00000
      8     -14.6412      2.00000
      9     -13.5362      2.00000
     10     -13.5362      2.00000
     11     -10.6402      2.00000
     12     -10.6402      2.00000
     13     -10.5125      2.00000
     14     -10.5125      2.00000
     15      -8.1241      2.00000
     16      -8.1240      2.00000
     17      -7.8730      2.00000
     18      -7.5207      2.00000
     19      -7.5206      2.00000
     20      -7.1038      2.00000
     21      -7.1037      2.00000
     22      -6.2037      2.00000
     23      -6.2037      2.00000
     24      -6.0511      2.00000
     25      -6.0511      2.00000
     26      -3.8063      2.00000
     27      -3.0480      2.00000
     28      -3.0479      2.00000
     29       0.0202      0.00000
     30       0.0203      0.00000
     31       0.1962      0.00000
     32       2.9807      0.00000
     33       2.9808      0.00000
     34       3.7280      0.00000
     35       3.7392      0.00000
     36       4.6550      0.00000

 k-point     2 :       0.4950    0.9900    0.0000
  band No.  band energies     occupation 
      1     -19.9980      2.00000
      2     -19.9313      2.00000
      3     -18.3628      2.00000
      4     -18.2652      2.00000
      5     -15.5175      2.00000
      6     -15.2463      2.00000
      7     -15.2259      2.00000
      8     -14.6270      2.00000
      9     -13.6077      2.00000
     10     -13.4646      2.00000
     11     -10.6993      2.00000
     12     -10.5986      2.00000
     13     -10.5805      2.00000
     14     -10.4255      2.00000
     15      -8.1632      2.00000
     16      -8.0836      2.00000
     17      -7.8724      2.00000
     18      -7.5925      2.00000
     19      -7.4519      2.00000
     20      -7.1762      2.00000
     21      -7.0328      2.00000
     22      -6.2587      2.00000
     23      -6.1476      2.00000
     24      -6.1198      2.00000
     25      -5.9849      2.00000
     26      -3.8103      2.00000
     27      -3.0622      2.00000
     28      -3.0349      2.00000
     29       0.0170      0.00000
     30       0.0239      0.00000
     31       0.2012      0.00000
     32       2.9356      0.00000
     33       3.0274      0.00000
     34       3.6513      0.00000
     35       3.8137      0.00000
     36       4.6149      0.00000

 k-point     3 :       0.4900    0.9800    0.0000
  band No.  band energies     occupation 
      1     -20.0297      2.00000
      2     -19.8961      2.00000
      3     -18.4100      2.00000
      4     -18.2147      2.00000
      5     -15.5550      2.00000
      6     -15.2559      2.00000
      7     -15.2155      2.00000
      8     -14.5869      2.00000
      9     -13.6785      2.00000
     10     -13.3931      2.00000
     11     -10.7577      2.00000
     12     -10.6832      2.00000
     13     -10.5203      2.00000
     14     -10.3377      2.00000
     15      -8.2010      2.00000
     16      -8.0418      2.00000
     17      -7.8706      2.00000
     18      -7.6666      2.00000
     19      -7.3859      2.00000
     20      -7.2495      2.00000
     21      -6.9625      2.00000
     22      -6.3125      2.00000
     23      -6.1905      2.00000
     24      -6.0902      2.00000
     25      -5.9201      2.00000
     26      -3.8223      2.00000
     27      -3.0776      2.00000
     28      -3.0229      2.00000
     29       0.0143      0.00000
     30       0.0279      0.00000
     31       0.2160      0.00000
     32       2.8922      0.00000
     33       3.0759      0.00000
     34       3.6104      0.00000
     35       4.2894      0.00000
     36       4.5948      0.00000

 k-point     4 :       0.4850    0.9700    0.0000
  band No.  band energies     occupation 
      1     -20.0602      2.00000
      2     -19.8599      2.00000
      3     -18.4561      2.00000
      4     -18.1632      2.00000
      5     -15.6114      2.00000
      6     -15.2650      2.00000
      7     -15.2050      2.00000
      8     -14.5262      2.00000
      9     -13.7485      2.00000
     10     -13.3222      2.00000
     11     -10.8154      2.00000
     12     -10.7662      2.00000
     13     -10.4594      2.00000
     14     -10.2492      2.00000
     15      -8.2374      2.00000
     16      -7.9986      2.00000
     17      -7.8677      2.00000
     18      -7.7433      2.00000
     19      -7.3236      2.00000
     20      -7.3229      2.00000
     21      -6.8936      2.00000
     22      -6.3651      2.00000
     23      -6.2626      2.00000
     24      -6.0317      2.00000
     25      -5.8584      2.00000
     26      -3.8421      2.00000
     27      -3.0941      2.00000
     28      -3.0121      2.00000
     29       0.0123      0.00000
     30       0.0308      0.00000
     31       0.2404      0.00000
     32       2.8503      0.00000
     33       3.1257      0.00000
     34       3.4938      0.00000
     35       3.9745      0.00000
     36       4.5293      0.00000

 k-point     5 :       0.4800    0.9600    0.0000
  band No.  band energies     occupation 
      1     -20.0895      2.00000
      2     -19.8225      2.00000
      3     -18.5011      2.00000
      4     -18.1105      2.00000
      5     -15.6809      2.00000
      6     -15.2735      2.00000
      7     -15.1948      2.00000
      8     -14.4506      2.00000
      9     -13.8172      2.00000
     10     -13.2522      2.00000
     11     -10.8726      2.00000
     12     -10.8470      2.00000
     13     -10.3979      2.00000
     14     -10.1604      2.00000
     15      -8.2724      2.00000
     16      -7.9541      2.00000
     17      -7.8637      2.00000
     18      -7.8226      2.00000
     19      -7.3989      2.00000
     20      -7.2630      2.00000
     21      -6.8257      2.00000
     22      -6.4165      2.00000
     23      -6.3363      2.00000
     24      -5.9721      2.00000
     25      -5.7993      2.00000
     26      -3.8696      2.00000
     27      -3.1119      2.00000
     28      -3.0023      2.00000
     29       0.0110      0.00000
     30       0.0350      0.00000
     31       0.2745      0.00000
     32       2.8100      0.00000
     33       3.1771      0.00000
     34       3.4069      0.00000
     35       4.0536      0.00000
     36       4.4885      0.00000

 k-point     6 :       0.4750    0.9500    0.0000
  band No.  band energies     occupation 
      1     -20.1177      2.00000
      2     -19.7839      2.00000
      3     -18.5450      2.00000
      4     -18.0569      2.00000
      5     -15.7594      2.00000
      6     -15.2814      2.00000
      7     -15.1851      2.00000
      8     -14.3643      2.00000
      9     -13.8842      2.00000
     10     -13.1839      2.00000
     11     -10.9291      2.00000
     12     -10.9251      2.00000
     13     -10.3359      2.00000
     14     -10.0714      2.00000
     15      -8.3063      2.00000
     16      -7.9083      2.00000
     17      -7.9043      2.00000
     18      -7.8584      2.00000
     19      -7.4756      2.00000
     20      -7.2059      2.00000
     21      -6.7588      2.00000
     22      -6.4667      2.00000
     23      -6.4114      2.00000
     24      -5.9116      2.00000
     25      -5.7429      2.00000
     26      -3.9041      2.00000
     27      -3.1303      2.00000
     28      -2.9935      2.00000
     29       0.0107      0.00000
     30       0.0392      0.00000
     31       0.3173      0.00000
     32       2.7713      0.00000
     33       3.2302      0.00000
     34       3.3286      0.00000
     35       4.2791      0.00000
     36       4.4646      0.00000

 k-point     7 :       0.4700    0.9400    0.0000
  band No.  band energies     occupation 
      1     -20.1447      2.00000
      2     -19.7442      2.00000
      3     -18.5878      2.00000
      4     -18.0021      2.00000
      5     -15.8436      2.00000
      6     -15.2886      2.00000
      7     -15.1761      2.00000
      8     -14.2706      2.00000
      9     -13.9493      2.00000
     10     -13.1176      2.00000
     11     -11.0001      2.00000
     12     -10.9847      2.00000
     13     -10.2733      2.00000
     14      -9.9823      2.00000
     15      -8.3386      2.00000
     16      -7.9877      2.00000
     17      -7.8611      2.00000
     18      -7.8519      2.00000
     19      -7.5533      2.00000
     20      -7.1523      2.00000
     21      -6.6931      2.00000
     22      -6.5158      2.00000
     23      -6.4876      2.00000
     24      -5.8497      2.00000
     25      -5.6893      2.00000
     26      -3.9452      2.00000
     27      -3.1505      2.00000
     28      -2.9856      2.00000
     29       0.0114      0.00000
     30       0.0433      0.00000
     31       0.3687      0.00000
     32       2.7344      0.00000
     33       3.2440      0.00000
     34       3.2855      0.00000
     35       4.4104      0.00000
     36       4.8673      0.00000

 k-point     8 :       0.4650    0.9300    0.0000
  band No.  band energies     occupation 
      1     -20.1705      2.00000
      2     -19.7034      2.00000
      3     -18.6295      2.00000
      4     -17.9463      2.00000
      5     -15.9316      2.00000
      6     -15.2951      2.00000
      7     -15.1683      2.00000
      8     -14.1714      2.00000
      9     -14.0118      2.00000
     10     -13.0544      2.00000
     11     -11.0712      2.00000
     12     -11.0398      2.00000
     13     -10.2103      2.00000
     14      -9.8933      2.00000
     15      -8.3695      2.00000
     16      -8.0733      2.00000
     17      -7.8442      2.00000
     18      -7.8127      2.00000
     19      -7.6323      2.00000
     20      -7.1021      2.00000
     21      -6.6283      2.00000
     22      -6.5645      2.00000
     23      -6.5635      2.00000
     24      -5.7866      2.00000
     25      -5.6384      2.00000
     26      -3.9925      2.00000
     27      -3.1720      2.00000
     28      -2.9789      2.00000
     29       0.0130      0.00000
     30       0.0463      0.00000
     31       0.4280      0.00000
     32       2.6989      0.00000
     33       3.1608      0.00000
     34       3.3413      0.00000
     35       4.3773      0.00000
     36       4.8062      0.00000

 k-point     9 :       0.4600    0.9200    0.0000
  band No.  band energies     occupation 
      1     -20.1952      2.00000
      2     -19.6614      2.00000
      3     -18.6700      2.00000
      4     -17.8894      2.00000
      5     -16.0219      2.00000
      6     -15.3007      2.00000
      7     -15.1622      2.00000
      8     -14.0712      2.00000
      9     -14.0681      2.00000
     10     -12.9949      2.00000
     11     -11.1374      2.00000
     12     -11.0941      2.00000
     13     -10.1467      2.00000
     14      -9.8045      2.00000
     15      -8.3990      2.00000
     16      -8.1608      2.00000
     17      -7.8354      2.00000
     18      -7.7629      2.00000
     19      -7.7126      2.00000
     20      -7.0552      2.00000
     21      -6.6422      2.00000
     22      -6.6099      2.00000
     23      -6.5648      2.00000
     24      -5.7225      2.00000
     25      -5.5907      2.00000
     26      -4.0454      2.00000
     27      -3.1947      2.00000
     28      -2.9727      2.00000
     29       0.0159      0.00000
     30       0.0499      0.00000
     31       0.4949      0.00000
     32       2.6650      0.00000
     33       3.0780      0.00000
     34       3.3992      0.00000
     35       4.3451      0.00000
     36       4.6242      0.00000

 k-point    10 :       0.4550    0.9100    0.0000
  band No.  band energies     occupation 
      1     -20.2187      2.00000
      2     -19.6182      2.00000
      3     -18.7095      2.00000
      4     -17.8314      2.00000
      5     -16.1137      2.00000
      6     -15.3057      2.00000
      7     -15.1582      2.00000
      8     -14.1271      2.00000
      9     -13.9616      2.00000
     10     -12.9405      2.00000
     11     -11.1976      2.00000
     12     -11.1478      2.00000
     13     -10.0828      2.00000
     14      -9.7161      2.00000
     15      -8.4271      2.00000
     16      -8.2501      2.00000
     17      -7.8254      2.00000
     18      -7.7943      2.00000
     19      -7.7118      2.00000
     20      -7.0120      2.00000
     21      -6.7203      2.00000
     22      -6.6555      2.00000
     23      -6.5024      2.00000
     24      -5.6573      2.00000
     25      -5.5462      2.00000
     26      -4.1035      2.00000
     27      -3.2188      2.00000
     28      -2.9677      2.00000
     29       0.0200      0.00000
     30       0.0529      0.00000
     31       0.5687      0.00000
     32       2.6330      0.00000
     33       2.9951      0.00000
     34       3.4590      0.00000
     35       4.3129      0.00000
     36       4.7078      0.00000

 k-point    11 :       0.4500    0.9000    0.0000
  band No.  band energies     occupation 
      1     -20.2411      2.00000
      2     -19.5740      2.00000
      3     -18.7478      2.00000
      4     -17.7725      2.00000
      5     -16.2063      2.00000
      6     -15.3098      2.00000
      7     -15.1571      2.00000
      8     -14.1785      2.00000
      9     -13.8525      2.00000
     10     -12.8922      2.00000
     11     -11.2507      2.00000
     12     -11.2007      2.00000
     13     -10.0184      2.00000
     14      -9.6284      2.00000
     15      -8.4539      2.00000
     16      -8.3410      2.00000
     17      -7.8776      2.00000
     18      -7.8141      2.00000
     19      -7.6594      2.00000
     20      -6.9722      2.00000
     21      -6.7986      2.00000
     22      -6.6995      2.00000
     23      -6.4416      2.00000
     24      -5.5910      2.00000
     25      -5.5050      2.00000
     26      -4.1661      2.00000
     27      -3.2439      2.00000
     28      -2.9636      2.00000
     29       0.0250      0.00000
     30       0.0557      0.00000
     31       0.6491      0.00000
     32       2.6021      0.00000
     33       2.9127      0.00000
     34       3.5198      0.00000
     35       4.2843      0.00000
     36       4.6611      0.00000

 k-point    12 :       0.4450    0.8900    0.0000
  band No.  band energies     occupation 
      1     -20.2623      2.00000
      2     -19.5286      2.00000
      3     -18.7850      2.00000
      4     -17.7124      2.00000
      5     -16.2994      2.00000
      6     -15.3131      2.00000
      7     -15.1594      2.00000
      8     -14.2248      2.00000
      9     -13.7412      2.00000
     10     -12.8515      2.00000
     11     -11.2951      2.00000
     12     -11.2529      2.00000
     13      -9.9537      2.00000
     14      -9.5411      2.00000
     15      -8.4793      2.00000
     16      -8.4336      2.00000
     17      -7.9624      2.00000
     18      -7.8017      2.00000
     19      -7.6057      2.00000
     20      -6.9359      2.00000
     21      -6.8772      2.00000
     22      -6.7423      2.00000
     23      -6.3822      2.00000
     24      -5.5238      2.00000
     25      -5.4670      2.00000
     26      -4.2320      2.00000
     27      -3.2703      2.00000
[...]
      3     -19.3396      2.00000
      4     -17.0048      2.00000
      5     -16.5669      2.00000
      6     -15.7385      2.00000
      7     -14.4944      2.00000
      8     -13.9397      2.00000
      9     -13.3644      2.00000
     10     -13.3325      2.00000
     11     -12.3564      2.00000
     12     -11.8612      2.00000
     13      -8.8390      2.00000
     14      -8.7832      2.00000
     15      -8.5955      2.00000
     16      -8.2117      2.00000
     17      -7.9800      2.00000
     18      -7.9363      2.00000
     19      -7.6572      2.00000
     20      -7.3853      2.00000
     21      -7.0313      2.00000
     22      -6.6779      2.00000
     23      -6.5355      2.00000
     24      -5.7905      2.00000
     25      -4.7813      2.00000
     26      -4.4277      2.00000
     27      -3.7112      2.00000
     28      -2.1427      2.00000
     29      -0.7448      0.00000
     30       0.3665      0.00000
     31       1.0418      0.00000
     32       1.7440      0.00000
     33       2.8800      0.00000
     34       3.5222      0.00000
     35       3.8411      0.00000
     36       4.5561      0.00000

 k-point   196 :       1.2533    0.3133    0.0000
  band No.  band energies     occupation 
      1     -19.9928      2.00000
      2     -19.5931      2.00000
      3     -19.3938      2.00000
      4     -16.9303      2.00000
      5     -16.5558      2.00000
      6     -15.8402      2.00000
      7     -14.3879      2.00000
      8     -13.8485      2.00000
      9     -13.4382      2.00000
     10     -13.3232      2.00000
     11     -12.4848      2.00000
     12     -11.9146      2.00000
     13      -8.7796      2.00000
     14      -8.6539      2.00000
     15      -8.5713      2.00000
     16      -8.1574      2.00000
     17      -7.9888      2.00000
     18      -7.9620      2.00000
     19      -7.6823      2.00000
     20      -7.4489      2.00000
     21      -7.1527      2.00000
     22      -6.6127      2.00000
     23      -6.4972      2.00000
     24      -5.8565      2.00000
     25      -4.7094      2.00000
     26      -4.4137      2.00000
     27      -3.7839      2.00000
     28      -2.0362      2.00000
     29      -0.8485      0.00000
     30       0.4404      0.00000
     31       1.0375      0.00000
     32       1.6333      0.00000
     33       2.9425      0.00000
     34       3.4930      0.00000
     35       3.7663      0.00000
     36       4.6162      0.00000

 k-point   197 :       1.2667    0.3167    0.0000
  band No.  band energies     occupation 
      1     -19.9457      2.00000
      2     -19.6127      2.00000
      3     -19.4465      2.00000
      4     -16.8545      2.00000
      5     -16.5432      2.00000
      6     -15.9431      2.00000
      7     -14.2848      2.00000
      8     -13.7538      2.00000
      9     -13.5108      2.00000
     10     -13.3128      2.00000
     11     -12.6130      2.00000
     12     -11.9626      2.00000
     13      -8.7198      2.00000
     14      -8.5469      2.00000
     15      -8.5254      2.00000
     16      -8.1014      2.00000
     17      -8.0469      2.00000
     18      -7.9469      2.00000
     19      -7.7055      2.00000
     20      -7.5107      2.00000
     21      -7.2751      2.00000
     22      -6.5496      2.00000
     23      -6.4599      2.00000
     24      -5.9239      2.00000
     25      -4.6379      2.00000
     26      -4.3978      2.00000
     27      -3.8606      2.00000
     28      -1.9315      2.00000
     29      -0.9508      0.00000
     30       0.5211      0.00000
     31       1.0332      0.00000
     32       1.5234      0.00000
     33       3.0071      0.00000
     34       3.4659      0.00000
     35       3.6937      0.00000
     36       4.6802      0.00000

 k-point   198 :       1.2800    0.3200    0.0000
  band No.  band energies     occupation 
      1     -19.8971      2.00000
      2     -19.6307      2.00000
      3     -19.4978      2.00000
      4     -16.7776      2.00000
      5     -16.5291      2.00000
      6     -16.0464      2.00000
      7     -14.1860      2.00000
      8     -13.6561      2.00000
      9     -13.5822      2.00000
     10     -13.3011      2.00000
     11     -12.7406      2.00000
     12     -12.0046      2.00000
     13      -8.6597      2.00000
     14      -8.5219      2.00000
     15      -8.3977      2.00000
     16      -8.1107      2.00000
     17      -8.0435      2.00000
     18      -7.9341      2.00000
     19      -7.7270      2.00000
     20      -7.5709      2.00000
     21      -7.3988      2.00000
     22      -6.4891      2.00000
     23      -6.4232      2.00000
     24      -5.9930      2.00000
     25      -4.5668      2.00000
     26      -4.3801      2.00000
     27      -3.9415      2.00000
     28      -1.8286      2.00000
     29      -1.0516      0.00000
     30       0.6072      0.00000
     31       1.0283      0.00000
     32       1.4148      0.00000
     33       3.0739      0.00000
     34       3.4408      0.00000
     35       3.6232      0.00000
     36       4.7460      0.00000

 k-point   199 :       1.2933    0.3233    0.0000
  band No.  band energies     occupation 
      1     -19.8470      2.00000
      2     -19.6472      2.00000
      3     -19.5475      2.00000
      4     -16.6995      2.00000
      5     -16.5137      2.00000
      6     -16.1500      2.00000
      7     -14.0922      2.00000
      8     -13.6522      2.00000
      9     -13.5560      2.00000
     10     -13.2883      2.00000
     11     -12.8676      2.00000
     12     -12.0393      2.00000
     13      -8.5997      2.00000
     14      -8.4965      2.00000
     15      -8.2713      2.00000
     16      -8.1802      2.00000
     17      -7.9840      2.00000
     18      -7.9234      2.00000
     19      -7.7466      2.00000
     20      -7.6296      2.00000
     21      -7.5233      2.00000
     22      -6.4318      2.00000
     23      -6.3875      2.00000
     24      -6.0637      2.00000
     25      -4.4963      2.00000
     26      -4.3606      2.00000
     27      -4.0252      2.00000
     28      -1.7277      2.00000
     29      -1.1506      0.00000
     30       0.6987      0.00000
     31       1.0226      0.00000
     32       1.3079      0.00000
     33       3.1428      0.00000
     34       3.4180      0.00000
     35       3.5548      0.00000
     36       4.8250      0.00000

 k-point   200 :       1.3067    0.3267    0.0000
  band No.  band energies     occupation 
      1     -19.7953      2.00000
      2     -19.6622      2.00000
      3     -19.5956      2.00000
      4     -16.6203      2.00000
      5     -16.4968      2.00000
      6     -16.2534      2.00000
      7     -14.0049      2.00000
      8     -13.7210      2.00000
      9     -13.4536      2.00000
     10     -13.2744      2.00000
     11     -12.9938      2.00000
     12     -12.0657      2.00000
     13      -8.5395      2.00000
     14      -8.4710      2.00000
     15      -8.2548      2.00000
     16      -8.1462      2.00000
     17      -7.9226      2.00000
     18      -7.9143      2.00000
     19      -7.7644      2.00000
     20      -7.6860      2.00000
     21      -7.6484      2.00000
     22      -6.3782      2.00000
     23      -6.3524      2.00000
     24      -6.1358      2.00000
     25      -4.4268      2.00000
     26      -4.3392      2.00000
     27      -4.1117      2.00000
     28      -1.6292      1.99985
     29      -1.2491      0.00015
     30       0.7951      0.00000
     31       1.0162      0.00000
     32       1.2028      0.00000
     33       3.2138      0.00000
     34       3.3973      0.00000
     35       3.4885      0.00000
     36       4.8818      0.00000

 k-point   201 :       1.3200    0.3300    0.0000
  band No.  band energies     occupation 
      1     -19.7421      2.00000
      2     -19.6756      2.00000
      3     -19.6423      2.00000
      4     -16.5400      2.00000
      5     -16.4785      2.00000
      6     -16.3564      2.00000
      7     -13.9254      2.00000
      8     -13.7886      2.00000
      9     -13.3493      2.00000
     10     -13.2593      2.00000
     11     -13.1190      2.00000
     12     -12.0826      2.00000
     13      -8.4792      2.00000
     14      -8.4450      2.00000
     15      -8.3346      2.00000
     16      -8.0226      2.00000
     17      -7.9070      2.00000
     18      -7.8592      2.00000
     19      -7.7803      2.00000
     20      -7.7744      2.00000
     21      -7.7411      2.00000
     22      -6.3287      2.00000
     23      -6.3180      2.00000
     24      -6.2094      2.00000
     25      -4.3583      2.00000
     26      -4.3162      2.00000
     27      -4.2004      2.00000
     28      -1.5329      1.98220
     29      -1.3447      0.01810
     30       0.8959      0.00000
     31       1.0090      0.00000
     32       1.1004      0.00000
     33       3.2870      0.00000
     34       3.3787      0.00000
     35       3.4243      0.00000
     36       4.9637      0.00000

 k-point   202 :       1.3333    0.3333    0.0000
  band No.  band energies     occupation 
      1     -19.6875      2.00000
      2     -19.6874      2.00000
      3     -19.6874      2.00000
      4     -16.4588      2.00000
      5     -16.4588      2.00000
      6     -16.4588      2.00000
      7     -13.8548      2.00000
      8     -13.8548      2.00000
      9     -13.2432      2.00000
     10     -13.2432      2.00000
     11     -13.2432      2.00000
     12     -12.0885      2.00000
     13      -8.4189      2.00000
     14      -8.4189      2.00000
     15      -8.4188      2.00000
     16      -7.9008      2.00000
     17      -7.9008      2.00000
     18      -7.9007      2.00000
     19      -7.7945      2.00000
     20      -7.7944      2.00000
     21      -7.7944      2.00000
     22      -6.2843      2.00000
     23      -6.2842      2.00000
     24      -6.2841      2.00000
     25      -4.2914      2.00000
     26      -4.2914      2.00000
     27      -4.2913      2.00000
     28      -1.4386      0.99993
     29      -1.4386      0.99976
     30       1.0008      0.00000
     31       1.0008      0.00000
     32       1.0008      0.00000
     33       3.3622      0.00000
     34       3.3622      0.00000
     35       3.3622      0.00000
     36       5.0223      0.00000


--------------------------------------------------------------------------------------------------------


 soft charge-density along one line, spin component           1
         0         1         2         3         4         5         6         7         8         9
 total charge-density along one line
 
 pseudopotential strength for first ion, spin component:           1
 10.651   0.014   0.000  -0.000  -0.000  -0.000   0.000   0.000
  0.014  -0.001  -0.000   0.000   0.000  -0.000   0.000   0.000
  0.000  -0.000  -4.186  -0.000   0.000  -0.013  -0.000   0.000
 -0.000   0.000  -0.000  -4.177  -0.000  -0.000  -0.008  -0.000
 -0.000   0.000   0.000  -0.000  -4.186   0.000  -0.000  -0.013
 -0.000  -0.000  -0.013  -0.000   0.000  -1.092  -0.000   0.000
  0.000   0.000  -0.000  -0.008  -0.000  -0.000  -1.092  -0.000
  0.000   0.000   0.000  -0.000  -0.013   0.000  -0.000  -1.092
 total augmentation occupancy for first ion, spin component:           1
  2.000   0.000   0.000   0.000   0.000   0.000   0.000   0.000
  0.000   0.000   0.000   0.000   0.000   0.000   0.000   0.000
  0.000   0.000   0.667   0.000   0.000   0.000   0.000   0.000
  0.000   0.000   0.000   0.667   0.000   0.000   0.000   0.000
  0.000   0.000   0.000   0.000   0.667   0.000   0.000   0.000
  0.000   0.000   0.000   0.000   0.000   0.000   0.000   0.000
  0.000   0.000   0.000   0.000   0.000   0.000   0.000   0.000
  0.000   0.000   0.000   0.000   0.000   0.000   0.000   0.000


------------------------ aborting loop because EDIFF is reached ----------------------------------------


    CHARGE:  cpu time    0.9522: real time    0.9547
    FORLOC:  cpu time    0.0056: real time    0.0057
    FORNL :  cpu time    3.3521: real time    4.9518
    STRESS:  cpu time   10.1199: real time   14.5771
    FORHAR:  cpu time    0.0133: real time    0.0133
    OFIELD:  cpu time    0.0001: real time    0.0001

  FORCE on cell =-STRESS in cart. coord.  units (eV):
  Direction    XX          YY          ZZ          XY          YZ          ZX
  --------------------------------------------------------------------------------------
  Alpha Z    40.48311    40.48311    40.48311
  Ewald    4558.43189  4558.43189 -6445.13344    -0.00000     0.00000     0.00000
  Hartree  4423.22266  4423.22266 -4345.29737    -0.00000    -0.00000    -0.00000
  E(xc)    -202.99541  -202.99541  -202.99541     0.00000     0.00000     0.00000
  Local   -9631.81203 -9631.81445 10024.08131    -0.00055    -0.00018    -0.00006
  n-local   -28.68722   -28.88023   -24.76595     0.05024    -0.00000     0.00000
  augment    -1.86598    -1.86513    -1.84632     0.00015     0.00000    -0.00000
  Kinetic   835.52505   836.95601   953.41862     1.53758    -0.00000    -0.00002
  Fock        0.00000     0.00000     0.00000     0.00000     0.00000     0.00000
  -------------------------------------------------------------------------------------
  Total      -7.07974    -7.07974    -2.05545    -0.00000     0.00000     0.00000
  in kB     -30.91924   -30.91924    -8.97674    -0.00000     0.00000     0.00000
  external pressure =      -23.61 kB  Pullay stress =        0.00 kB


 VOLUME and BASIS-vectors are now :
 -----------------------------------------------------------------------------
  energy-cutoff  :      400.00
  volume of cell :      366.86
      direct lattice vectors                 reciprocal lattice vectors
     6.150000000  2.130422493  0.000000000     0.116144019  0.134111561  0.000000000
    -4.920000000  4.260844987  0.000000000    -0.058072009  0.167639451  0.000000000
     0.000000000  0.000000000 10.000000000     0.000000000  0.000000000  0.100000000

  length of vectors
     6.508548225  6.508548225 10.000000000     0.177412919  0.177412919  0.100000000


 FORCES acting on ions
    electron-ion (+dipol)            ewald-force                    non-local-force                 convergence-correction
 -----------------------------------------------------------------------------------------------
   0.175E-03 0.499E-03 -.186E-03   -.981E-12 0.114E-12 -.811E-17   0.000E+00 -.206E-17 0.265E-22   0.350E-04 -.670E-05 -.524E-08
   0.228E-03 0.504E-03 -.186E-03   0.796E-11 0.534E-11 -.461E-17   0.163E-17 -.249E-17 0.397E-22   0.674E-03 0.911E-04 -.589E-08
   0.156E-03 0.436E-03 -.188E-03   0.225E-10 -.121E-10 -.461E-17   -.390E-17 0.325E-18 -.695E-22   -.192E-03 -.711E-03 -.588E-08
   0.174E-03 0.447E-03 -.186E-03   0.106E-11 -.372E-11 0.612E-17   -.575E-17 0.412E-17 -.132E-22   0.161E-04 -.592E-03 -.561E-08
   0.138E-03 0.549E-03 -.186E-03   0.120E-10 -.148E-11 0.753E-18   -.217E-18 0.369E-17 -.529E-22   -.369E-03 0.598E-03 -.563E-08
   0.211E-03 0.531E-03 -.186E-03   -.170E-10 0.144E-10 0.130E-16   0.108E-18 0.206E-17 0.397E-22   0.437E-03 0.574E-03 -.531E-08
   0.127E-03 0.518E-03 -.185E-03   -.296E-10 -.227E-11 -.149E-17   -.152E-17 0.163E-17 0.149E-21   -.501E-03 0.273E-04 -.494E-08
   -.136E-03 -.471E-03 0.187E-03   -.147E-10 -.481E-11 0.506E-17   0.000E+00 -.239E-17 0.000E+00   0.424E-03 0.255E-03 0.577E-08
   -.208E-03 -.537E-03 0.185E-03   -.244E-10 0.211E-10 -.398E-17   0.325E-18 0.759E-18 -.331E-22   -.442E-03 -.504E-03 0.547E-08
   -.176E-03 -.552E-03 0.186E-03   -.649E-11 -.720E-11 -.645E-17   0.239E-17 0.119E-17 -.199E-22   -.162E-04 -.561E-03 0.554E-08
   -.116E-03 -.514E-03 0.185E-03   0.600E-12 0.515E-12 0.237E-17   0.217E-17 -.249E-17 0.662E-22   0.586E-03 -.144E-03 0.550E-08
   -.187E-03 -.442E-03 0.187E-03   0.125E-10 -.150E-10 0.203E-17   0.217E-18 0.130E-17 0.000E+00   -.273E-04 0.623E-03 0.547E-08
   -.175E-03 -.495E-03 0.187E-03   0.251E-10 -.311E-11 0.943E-17   0.976E-18 -.325E-18 -.331E-22   -.423E-03 0.813E-04 0.609E-08
   -.211E-03 -.472E-03 0.186E-03   0.114E-10 0.828E-11 -.954E-17   0.152E-17 -.477E-17 -.265E-22   -.291E-03 0.285E-03 0.602E-08
 -----------------------------------------------------------------------------------------------
   0.310E-07 0.689E-06 -.367E-07   0.171E-13 -.192E-13 0.000E+00   -.206E-17 0.542E-18 0.728E-22   -.878E-04 0.169E-04 0.135E-08
 
 
 POSITION                                       TOTAL-FORCE (eV/Angst)
 -----------------------------------------------------------------------------------
      0.00000      0.00000      5.00000         0.000000     -0.000000     -0.000000
     -2.46000      4.26084      5.00000         0.000000     -0.000000     -0.000000
     -0.00000      4.26084      5.00000         0.000000      0.000000     -0.000000
      2.46000      4.26084      5.00000        -0.000000     -0.000000      0.000000
     -1.23000      2.13042      5.00000        -0.000000     -0.000000     -0.000000
      1.23000      2.13042      5.00000        -0.000000     -0.000000      0.000000
      3.69000      2.13042      5.00000         0.000000     -0.000000     -0.000000
      1.23000      0.71014      5.00000         0.000000      0.000000     -0.000000
     -1.23000      4.97099      5.00000        -0.000000      0.000000     -0.000000
      1.23000      4.97099      5.00000         0.000000      0.000000     -0.000000
     -2.46000      2.84056      5.00000         0.000000      0.000000      0.000000
      0.00000      2.84056      5.00000        -0.000000     -0.000000      0.000000
      2.46000      2.84056      5.00000        -0.000000      0.000000      0.000000
      4.92000      2.84056      5.00000         0.000000      0.000000     -0.000000
 -----------------------------------------------------------------------------------
    total drift:                               -0.000088      0.000018     -0.000000


--------------------------------------------------------------------------------------------------------



  FREE ENERGIE OF THE ION-ELECTRON SYSTEM (eV)
  ---------------------------------------------------
  free  energy   TOTEN  =      -141.68802623 eV

  energy  without entropy=     -141.68773111  energy(sigma->0) =     -141.68787867
 


--------------------------------------------------------------------------------------------------------


    POTLOK:  cpu time    0.0112: real time    0.0112


--------------------------------------------------------------------------------------------------------


 stress matrix after NEB project (eV)
     -7.07974      0.00000      0.00000
     -0.00000     -7.07974     -0.00000
      0.00000      0.00000     -2.05545
  FORCES: max atom, RMS     0.000000    0.000000
  FORCE total and by dimension    0.000000    0.000000
  Stress total and by dimension   10.221067    7.079737
 writing wavefunctions
     LOOP+:  cpu time  151.8371: real time  169.6198
    4ORBIT:  cpu time    0.0000: real time    0.0000

 total amount of memory used by VASP MPI-rank0   242472. kBytes
=======================================================================

   base      :      30000. kBytes
   nonlr-proj:       1551. kBytes
   fftplans  :       3708. kBytes
   grid      :       7045. kBytes
   one-center:         43. kBytes
   wavefun   :     200125. kBytes
 
  
  
 General timing and accounting informations for this job:
 ========================================================
  
                  Total CPU time used (sec):      165.778
                            User time (sec):      130.869
                          System time (sec):       34.909
                         Elapsed time (sec):      200.977
  
                   Maximum memory used (kb):     1049020.
                   Average memory used (kb):           0.
  
                          Minor page faults:       335594
                          Major page faults:            0
                 Voluntary context switches:       128373
