<?xml version="1.0" encoding="ISO-8859-1"?>
<modeling>
 <generator>
  <i name="program" type="string">vasp </i>
  <i name="version" type="string">5.4.4.18Apr17-6-g9f103f2a35  </i>
  <i name="subversion" type="string">(build Aug 13 2022 23:40:43) complex            parallel </i>
  <i name="platform" type="string">LinuxIFC </i>
  <i name="date" type="string">2024 11 10 </i>
  <i name="time" type="string">04:17:20 </i>
 </generator>
 <incar>
  <i type="int" name="ISTART">     1</i>
  <i type="string" name="PREC">accurate</i>
  <i type="string" name="ALGO"> F          N:DAV,fine,slow</i>
  <i type="logical" name="ADDGRID"> T  </i>
  <i type="int" name="ISPIN">     1</i>
  <i type="int" name="ICHARG">     1</i>
  <i type="int" name="NELM">   300</i>
  <i type="int" name="IBRION">    -1</i>
  <i name="EDIFF">      0.00001000</i>
  <i name="EDIFFG">     -0.00100000</i>
  <i type="int" name="NSW">     1</i>
  <i type="int" name="ISIF">     2</i>
  <i name="ENCUT">    400.00000000</i>
  <i type="logical" name="LREAL"> F  </i>
  <i type="int" name="ISMEAR">     0</i>
  <i name="SIGMA">      0.05000000</i>
  <i type="logical" name="LWAVE"> F  </i>
  <i type="logical" name="LCHARG"> F  </i>
  <v type="int" name="KPOINT_BSE">    -1     0     0     0</v>
  <i type="int" name="NELM">   300</i>
 </incar>
 <structure name="primitive_cell" >
  <crystal>
   <varray name="basis" >
    <v>      12.30000019       0.00000000       0.00000000 </v>
    <v>       6.15000080      10.65211222       0.00000000 </v>
    <v>       0.00000000       0.00000000      20.00000000 </v>
   </varray>
   <i name="volume">   2620.41964732 </i>
   <varray name="rec_basis" >
    <v>       0.08130081      -0.04693905       0.00000000 </v>
    <v>       0.00000000       0.09387809       0.00000000 </v>
    <v>       0.00000000       0.00000000       0.05000000 </v>
   </varray>
  </crystal>
  <varray name="positions" >
   <v>       0.00000000       0.00000000       0.41799748 </v>
   <v>       0.06666667       0.06666660       0.41800609 </v>
   <v>      -0.13333333       0.06666660       0.41800609 </v>
   <v>       0.06666667      -0.13333340       0.41800609 </v>
   <v>      -0.20000000       0.20000000       0.41799748 </v>
   <v>       0.20000000      -0.20000000       0.41799748 </v>
   <v>       0.20000000       0.00000000       0.41799748 </v>
   <v>      -0.20000000       0.00000000       0.41799748 </v>
   <v>       0.00000000       0.20000000       0.41799748 </v>
   <v>       0.00000000      -0.20000000       0.41799748 </v>
   <v>      -0.13333333       0.26666660       0.41800609 </v>
   <v>       0.26666667      -0.13333340       0.41800609 </v>
   <v>      -0.13333333      -0.13333340       0.41800609 </v>
   <v>       0.06666667       0.26666660       0.41800609 </v>
   <v>      -0.33333333       0.26666660       0.41800609 </v>
   <v>       0.26666667       0.06666660       0.41800609 </v>
   <v>      -0.33333333       0.06666660       0.41800609 </v>
   <v>       0.26666667      -0.33333340       0.41800609 </v>
   <v>       0.06666667      -0.33333340       0.41800609 </v>
   <v>      -0.40000000       0.20000000       0.41799748 </v>
   <v>       0.40000000      -0.20000000       0.41799748 </v>
   <v>      -0.20000000       0.40000000       0.41799748 </v>
   <v>       0.20000000      -0.40000000       0.41799748 </v>
   <v>       0.20000000       0.20000000       0.41799748 </v>
   <v>      -0.20000000      -0.20000000       0.41799748 </v>
   <v>      -0.40000000       0.40000000       0.41799748 </v>
   <v>       0.40000000      -0.40000000       0.41799748 </v>
   <v>       0.40000000       0.00000000       0.41799748 </v>
   <v>      -0.40000000       0.00000000       0.41799748 </v>
   <v>       0.00000000       0.40000000       0.41799748 </v>
   <v>       0.00000000      -0.40000000       0.41799748 </v>
   <v>      -0.13333333       0.46666660       0.41800609 </v>
   <v>      -0.33333333       0.46666660       0.41800609 </v>
   <v>       0.46666667      -0.13333340       0.41800609 </v>
   <v>       0.46666667      -0.33333340       0.41800609 </v>
   <v>      -0.33333333      -0.13333340       0.41800609 </v>
   <v>      -0.13333333      -0.33333340       0.41800609 </v>
   <v>       0.26585366       0.26666660       0.41800609 </v>
   <v>       0.46666667       0.26666660       0.41800609 </v>
   <v>       0.26666667       0.46666660       0.41800609 </v>
   <v>       0.06666667       0.46666660       0.41800609 </v>
   <v>       0.46666667       0.46666660       0.41800609 </v>
   <v>       0.46666667       0.06666660       0.41800609 </v>
   <v>       0.40000000       0.40000000       0.41799748 </v>
   <v>      -0.40000000      -0.40000000       0.41799748 </v>
   <v>       0.40000000       0.20000000       0.41799748 </v>
   <v>      -0.40000000      -0.20000000       0.41799748 </v>
   <v>       0.20000000       0.40000000       0.41799748 </v>
   <v>      -0.20000000      -0.40000000       0.41799748 </v>
   <v>       0.40000000       0.40000000       0.46800609 </v>
   <v>      -0.33333333      -0.33333340       0.41800609 </v>
  </varray>
 </structure>
 <varray name="primitive_index" >
  <v type="int" >        1 </v>
  <v type="int" >       26 </v>
  <v type="int" >       30 </v>
  <v type="int" >       46 </v>
  <v type="int" >       10 </v>
  <v type="int" >       22 </v>
  <v type="int" >        2 </v>
  <v type="int" >        5 </v>
  <v type="int" >        6 </v>
  <v type="int" >       21 </v>
  <v type="int" >       35 </v>
  <v type="int" >       47 </v>
  <v type="int" >       50 </v>
  <v type="int" >       31 </v>
  <v type="int" >       34 </v>
  <v type="int" >       27 </v>
  <v type="int" >       29 </v>
  <v type="int" >       42 </v>
  <v type="int" >       41 </v>
  <v type="int" >        9 </v>
  <v type="int" >       23 </v>
  <v type="int" >       15 </v>
  <v type="int" >       17 </v>
  <v type="int" >        7 </v>
  <v type="int" >       25 </v>
  <v type="int" >       14 </v>
  <v type="int" >       18 </v>
  <v type="int" >        3 </v>
  <v type="int" >        4 </v>
  <v type="int" >       11 </v>
  <v type="int" >       16 </v>
  <v type="int" >       40 </v>
  <v type="int" >       39 </v>
  <v type="int" >       48 </v>
  <v type="int" >       43 </v>
  <v type="int" >       49 </v>
  <v type="int" >       45 </v>
  <v type="int" >       32 </v>
  <v type="int" >       33 </v>
  <v type="int" >       37 </v>
  <v type="int" >       36 </v>
  <v type="int" >       38 </v>
  <v type="int" >       28 </v>
  <v type="int" >       13 </v>
  <v type="int" >       19 </v>
  <v type="int" >        8 </v>
  <v type="int" >       24 </v>
  <v type="int" >       12 </v>
  <v type="int" >       20 </v>
  <v type="int" >       51 </v>
  <v type="int" >       44 </v>
 </varray>
 <kpoints>
  <generation param="Gamma">
   <v type="int" name="divisions">       3        3        1 </v>
   <v name="usershift">      0.00000000       0.00000000       0.00000000 </v>
   <v name="genvec1">      0.33333333      -0.00000000       0.00000000 </v>
   <v name="genvec2">      0.00000000       0.33333333       0.00000000 </v>
   <v name="genvec3">      0.00000000       0.00000000       1.00000000 </v>
   <v name="shift">      0.00000000       0.00000000       0.00000000 </v>
  </generation>
  <varray name="kpointlist" >
   <v>       0.00000000       0.00000000       0.00000000 </v>
   <v>       0.33333333       0.00000000       0.00000000 </v>
   <v>       0.00000000       0.33333333       0.00000000 </v>
   <v>       0.33333333       0.33333333       0.00000000 </v>
   <v>      -0.33333333       0.33333333       0.00000000 </v>
  </varray>
  <varray name="weights" >
   <v>       0.11111111 </v>
   <v>       0.22222222 </v>
   <v>       0.22222222 </v>
   <v>       0.22222222 </v>
   <v>       0.22222222 </v>
  </varray>
 </kpoints>
 <parameters>
  <separator name="general" >
   <i type="string" name="SYSTEM"></i>
   <i type="logical" name="LCOMPAT"> F  </i>
  </separator>
  <separator name="electronic" >
   <i type="string" name="PREC">accura</i>
   <i name="ENMAX">    400.00000000</i>
   <i name="ENAUG">    644.87300000</i>
   <i name="EDIFF">      0.00001000</i>
   <i type="int" name="IALGO">    68</i>
   <i type="int" name="IWAVPR">    10</i>
   <i type="int" name="NBANDS">   132</i>
   <i name="NELECT">    206.00000000</i>
   <i type="int" name="TURBO">     0</i>
   <i type="int" name="IRESTART">     0</i>
   <i type="int" name="NREBOOT">     0</i>
   <i type="int" name="NMIN">     0</i>
   <i name="EREF">      0.00000000</i>
   <separator name="electronic smearing" >
    <i type="int" name="ISMEAR">     0</i>
    <i name="SIGMA">      0.05000000</i>
    <i name="KSPACING">      0.50000000</i>
    <i type="logical" name="KGAMMA"> T  </i>
   </separator>
   <separator name="electronic projectors" >
    <i type="logical" name="LREAL"> F  </i>
    <v name="ROPT">      0.00000000      0.00000000</v>
    <i type="int" name="LMAXPAW">  -100</i>
    <i type="int" name="LMAXMIX">     2</i>
    <i type="logical" name="NLSPLINE"> F  </i>
   </separator>
   <separator name="electronic startup" >
    <i type="int" name="ISTART">     1</i>
    <i type="int" name="ICHARG">     1</i>
    <i type="int" name="INIWAV">     1</i>
   </separator>
   <separator name="electronic spin" >
    <i type="int" name="ISPIN">     1</i>
    <i type="logical" name="LNONCOLLINEAR"> F  </i>
    <v name="MAGMOM">      1.00000000      1.00000000      1.00000000      1.00000000      1.00000000      1.00000000      1.00000000      1.00000000      1.00000000      1.00000000      1.00000000      1.00000000      1.00000000      1.00000000      1.00000000      1.00000000      1.00000000      1.00000000      1.00000000      1.00000000
      1.00000000      1.00000000      1.00000000      1.00000000      1.00000000      1.00000000      1.00000000      1.00000000      1.00000000      1.00000000      1.00000000      1.00000000      1.00000000      1.00000000      1.00000000      1.00000000      1.00000000      1.00000000      1.00000000      1.00000000
      1.00000000      1.00000000      1.00000000      1.00000000      1.00000000      1.00000000      1.00000000      1.00000000      1.00000000      1.00000000      1.00000000</v>
    <i name="NUPDOWN">     -1.00000000</i>
    <i type="logical" name="LSORBIT"> F  </i>
    <v name="SAXIS">      0.00000000      0.00000000      1.00000000</v>
    <i type="logical" name="LSPIRAL"> F  </i>
    <v name="QSPIRAL">      0.00000000      0.00000000      0.00000000</v>
    <i type="logical" name="LZEROZ"> F  </i>
   </separator>
   <separator name="electronic exchange-correlation" >
    <i type="logical" name="LASPH"> F  </i>
    <i type="logical" name="LMETAGGA"> F  </i>
   </separator>
   <separator name="electronic convergence" >
    <i type="int" name="NELM">   300</i>
    <i type="int" name="NELMDL">     0</i>
    <i type="int" name="NELMIN">     2</i>
    <i name="ENINI">    400.00000000</i>
    <separator name="electronic convergence detail" >
     <i type="logical" name="LDIAG"> T  </i>
     <i type="logical" name="LSUBROT"> F  </i>
     <i name="WEIMIN">      0.00000000</i>
     <i name="EBREAK">      0.00000002</i>
     <i name="DEPER">      0.30000000</i>
     <i type="int" name="NRMM">     4</i>
     <i name="TIME">      0.40000000</i>
    </separator>
   </separator>
   <separator name="electronic mixer" >
    <i name="AMIX">      0.40000000</i>
    <i name="BMIX">      1.00000000</i>
    <i name="AMIN">      0.10000000</i>
    <i name="AMIX_MAG">      1.60000000</i>
    <i name="BMIX_MAG">      1.00000000</i>
    <separator name="electronic mixer details" >
     <i type="int" name="IMIX">     4</i>
     <i type="logical" name="MIXFIRST"> F  </i>
     <i type="int" name="MAXMIX">   -45</i>
     <i name="WC">    100.00000000</i>
     <i type="int" name="INIMIX">     1</i>
     <i type="int" name="MIXPRE">     1</i>
     <i type="int" name="MREMOVE">     5</i>
    </separator>
   </separator>
   <separator name="electronic dipolcorrection" >
    <i type="logical" name="LDIPOL"> F  </i>
    <i type="logical" name="LMONO"> F  </i>
    <i type="int" name="IDIPOL">     0</i>
    <i name="EPSILON">      1.00000000</i>
    <v name="DIPOL">   -100.00000000   -100.00000000   -100.00000000</v>
    <i name="EFIELD">      0.00000000</i>
   </separator>
  </separator>
  <separator name="grids" >
   <i type="int" name="NGX">    80</i>
   <i type="int" name="NGY">    80</i>
   <i type="int" name="NGZ">   140</i>
   <i type="int" name="NGXF">   160</i>
   <i type="int" name="NGYF">   160</i>
   <i type="int" name="NGZF">   280</i>
   <i type="logical" name="ADDGRID"> T  </i>
  </separator>
  <separator name="ionic" >
   <i type="int" name="NSW">     1</i>
   <i type="int" name="IBRION">    -1</i>
   <i type="int" name="MDALGO">     0</i>
   <i type="int" name="ISIF">     2</i>
   <i name="PSTRESS">      0.00000000</i>
   <i name="EDIFFG">     -0.00100000</i>
   <i type="int" name="NFREE">     0</i>
   <i name="POTIM">      0.50000000</i>
   <i name="SMASS">     -3.00000000</i>
   <i name="SCALEE">      1.00000000</i>
  </separator>
  <separator name="ionic md" >
   <i name="TEBEG">      0.00010000</i>
   <i name="TEEND">      0.00010000</i>
   <i type="int" name="NBLOCK">     1</i>
   <i type="int" name="KBLOCK">     1</i>
   <i type="int" name="NPACO">   256</i>
   <i name="APACO">     16.00000000</i>
  </separator>
  <separator name="symmetry" >
   <i type="int" name="ISYM">     2</i>
   <i name="SYMPREC">      0.00001000</i>
  </separator>
  <separator name="dos" >
   <i type="int" name="LORBIT">     0</i>
   <v name="RWIGS">     -1.00000000     -1.00000000</v>
   <i type="int" name="NEDOS">   301</i>
   <i name="EMIN">     10.00000000</i>
   <i name="EMAX">    -10.00000000</i>
   <i name="EFERMI">      0.00000000</i>
  </separator>
  <separator name="writing" >
   <i type="int" name="NWRITE">     2</i>
   <i type="logical" name="LWAVE"> F  </i>
   <i type="logical" name="LDOWNSAMPLE"> F  </i>
   <i type="logical" name="LCHARG"> F  </i>
   <i type="logical" name="LPARD"> F  </i>
   <i type="logical" name="LVTOT"> F  </i>
   <i type="logical" name="LVHAR"> F  </i>
   <i type="logical" name="LELF"> F  </i>
   <i type="logical" name="LOPTICS"> F  </i>
   <v name="STM">      0.00000000      0.00000000      0.00000000      0.00000000      0.00000000      0.00000000      0.00000000</v>
  </separator>
  <separator name="performance" >
   <i type="int" name="NPAR">     6</i>
   <i type="int" name="NSIM">     4</i>
   <i type="int" name="NBLK">    -1</i>
   <i type="logical" name="LPLANE"> T  </i>
   <i type="logical" name="LSCALAPACK"> T  </i>
   <i type="logical" name="LSCAAWARE"> F  </i>
   <i type="logical" name="LSCALU"> F  </i>
   <i type="logical" name="LASYNC"> F  </i>
   <i type="logical" name="LORBITALREAL"> F  </i>
  </separator>
  <separator name="miscellaneous" >
   <i type="int" name="IDIOT">     3</i>
   <i type="int" name="ISPECIAL">     0</i>
   <i type="logical" name="LMUSIC"> F  </i>
   <v name="POMASS">     12.01100000     16.00000000</v>
   <v name="DARWINR">      0.00000000      0.00000000</v>
   <v name="DARWINV">      1.00000000      1.00000000</v>
   <i type="logical" name="LCORR"> T  </i>
  </separator>
  <i type="logical" name="GGA_COMPAT"> T  </i>
  <i type="logical" name="LBERRY"> F  </i>
  <i type="int" name="ICORELEVEL">     0</i>
  <i type="logical" name="LDAU"> F  </i>
  <i type="int" name="I_CONSTRAINED_M">     0</i>
  <separator name="electronic exchange-correlation" >
   <i type="string" name="GGA">--</i>
   <i type="int" name="VOSKOWN">     0</i>
   <i type="logical" name="LHFCALC"> F  </i>
   <i type="string" name="PRECFOCK"></i>
   <i type="logical" name="LSYMGRAD"> F  </i>
   <i type="logical" name="LHFONE"> F  </i>
   <i type="logical" name="LRHFCALC"> F  </i>
   <i type="logical" name="LTHOMAS"> F  </i>
   <i type="logical" name="LMODELHF"> F  </i>
   <i name="ENCUT4O">     -1.00000000</i>
   <i type="int" name="EXXOEP">     0</i>
   <i type="int" name="FOURORBIT">     0</i>
   <i name="AEXX">      0.00000000</i>
   <i name="HFALPHA">      0.00000000</i>
   <i name="MCALPHA">      0.00000000</i>
   <i name="ALDAX">      1.00000000</i>
   <i name="AGGAX">      1.00000000</i>
   <i name="ALDAC">      1.00000000</i>
   <i name="AGGAC">      1.00000000</i>
   <i type="int" name="NKREDX">     1</i>
   <i type="int" name="NKREDY">     1</i>
   <i type="int" name="NKREDZ">     1</i>
   <i type="logical" name="SHIFTRED"> F  </i>
   <i type="logical" name="ODDONLY"> F  </i>
   <i type="logical" name="EVENONLY"> F  </i>
   <i type="int" name="LMAXFOCK">     0</i>
   <i type="int" name="NMAXFOCKAE">     0</i>
   <i type="logical" name="LFOCKAEDFT"> F  </i>
   <i name="HFSCREEN">      0.00000000</i>
   <i name="HFSCREENC">      0.00000000</i>
   <i type="int" name="NBANDSGWLOW">     0</i>
  </separator>
  <separator name="vdW DFT" >
   <i type="logical" name="LUSE_VDW"> F  </i>
   <i name="Zab_VDW">     -0.84910000</i>
   <i name="PARAM1">      0.12340000</i>
   <i name="PARAM2">      1.00000000</i>
   <i name="PARAM3">      0.00000000</i>
  </separator>
  <separator name="model GW" >
   <i type="int" name="MODEL_GW">     0</i>
   <i name="MODEL_EPS0">     30.82846644</i>
   <i name="MODEL_ALPHA">      1.00000000</i>
  </separator>
  <separator name="linear response parameters" >
   <i type="logical" name="LEPSILON"> F  </i>
   <i type="logical" name="LRPA"> F  </i>
   <i type="logical" name="LNABLA"> F  </i>
   <i type="logical" name="LVEL"> F  </i>
   <i type="int" name="KINTER">     0</i>
   <i name="CSHIFT">      0.10000000</i>
   <i name="OMEGAMAX">     -1.00000000</i>
   <i name="DEG_THRESHOLD">      0.00200000</i>
   <i name="RTIME">     -0.10000000</i>
   <i name="WPLASMAI">      0.00000000</i>
   <v name="DFIELD">      0.00000000      0.00000000      0.00000000</v>
   <v name="WPLASMA">      0.00000000      0.00000000      0.00000000      0.00000000      0.00000000      0.00000000      0.00000000      0.00000000      0.00000000</v>
  </separator>
  <separator name="orbital magnetization" >
   <i type="logical" name="NUCIND"> F  </i>
   <v name="MAGPOS">      0.00000000      0.00000000      0.00000000</v>
   <i type="logical" name="LNICSALL"> T  </i>
   <i type="logical" name="ORBITALMAG"> F  </i>
   <i type="logical" name="LMAGBLOCH"> F  </i>
   <i type="logical" name="LCHIMAG"> F  </i>
   <i type="logical" name="LGAUGE"> T  </i>
   <i type="int" name="MAGATOM">     0</i>
   <v name="MAGDIPOL">      0.00000000      0.00000000      0.00000000</v>
   <v name="AVECCONST">      0.00000000      0.00000000      0.00000000</v>
  </separator>
  <separator name="response functions" >
   <i type="logical" name="LADDER"> F  </i>
   <i type="logical" name="LRPAFORCE"> F  </i>
   <i type="logical" name="LFXC"> F  </i>
   <i type="logical" name="LHARTREE"> T  </i>
   <i type="int" name="IBSE">     0</i>
   <v type="int" name="KPOINT">    -1     0     0     0</v>
   <i type="logical" name="LTCTE"> F  </i>
   <i type="logical" name="LTETE"> F  </i>
   <i type="logical" name="LTRIPLET"> F  </i>
   <i type="logical" name="LFXCEPS"> F  </i>
   <i type="logical" name="LFXHEG"> F  </i>
   <i type="int" name="NATURALO">     2</i>
   <i type="logical" name="L2ORDER"> F  </i>
   <i type="logical" name="LMP2LT"> F  </i>
   <i type="logical" name="LUSEW"> F  </i>
   <i name="ENCUTGW">     -2.00000000</i>
   <i name="ENCUTGWSOFT">     -2.00000000</i>
   <i name="ENCUTLF">     -1.00000000</i>
   <i type="int" name="LMAXMP2">    -1</i>
   <i name="SCISSOR">      0.00000000</i>
   <i type="int" name="NOMEGA">     0</i>
   <i type="int" name="NOMEGAR">     0</i>
   <i type="int" name="NBANDSGW">    -1</i>
   <i type="int" name="NBANDSO">    -1</i>
   <i type="int" name="NBANDSV">    -1</i>
   <i type="int" name="NELM">   300</i>
   <i type="int" name="NELMHF">     1</i>
   <i type="int" name="DIM">     3</i>
   <i type="int" name="ANTIRES">     0</i>
   <i name="OMEGAMAX">    -30.00000000</i>
   <i name="OMEGAMIN">    -30.00000000</i>
   <i name="OMEGATL">   -200.00000000</i>
   <i type="int" name="OMEGAGRID">   140</i>
   <i name="CSHIFT">     -0.10000000</i>
   <i type="logical" name="SELFENERGY"> F  </i>
   <i type="logical" name="LSPECTRAL"> F  </i>
   <i type="logical" name="LSPECTRALGW"> F  </i>
   <i type="logical" name="LSINGLES"> F  </i>
   <i type="logical" name="LFERMIGW"> F  </i>
   <i type="logical" name="ODDONLYGW"> F  </i>
   <i type="logical" name="EVENONLYGW"> F  </i>
   <i type="int" name="NKREDLFX">     1</i>
   <i type="int" name="NKREDLFY">     1</i>
   <i type="int" name="NKREDLFZ">     1</i>
   <i type="int" name="MAXMEM">  2800</i>
   <i type="int" name="TELESCOPE">     0</i>
   <i type="int" name="TAUPAR">     1</i>
   <i type="int" name="OMEGAPAR">    -1</i>
   <i name="LAMBDA">      1.00000000</i>
  </separator>
  <separator name="External order field" >
   <i name="OFIELD_KAPPA">      0.00000000</i>
   <v name="OFIELD_K">      0.00000000      0.00000000      0.00000000</v>
   <i name="OFIELD_Q6_NEAR">      0.00000000</i>
   <i name="OFIELD_Q6_FAR">      0.00000000</i>
   <i name="OFIELD_A">      0.00000000</i>
  </separator>
 </parameters>
 <atominfo>
  <atoms>      51 </atoms>
  <types>       2 </types>
  <array name="atoms" >
   <dimension dim="1">ion</dimension>
   <field type="string">element</field>
   <field type="int">atomtype</field>
   <set>
    <rc><c>C </c><c>   1</c></rc>
    <rc><c>C </c><c>   1</c></rc>
    <rc><c>C </c><c>   1</c></rc>
    <rc><c>C </c><c>   1</c></rc>
    <rc><c>C </c><c>   1</c></rc>
    <rc><c>C </c><c>   1</c></rc>
    <rc><c>C </c><c>   1</c></rc>
    <rc><c>C </c><c>   1</c></rc>
    <rc><c>C </c><c>   1</c></rc>
    <rc><c>C </c><c>   1</c></rc>
    <rc><c>C </c><c>   1</c></rc>
    <rc><c>C </c><c>   1</c></rc>
    <rc><c>C </c><c>   1</c></rc>
    <rc><c>C </c><c>   1</c></rc>
    <rc><c>C </c><c>   1</c></rc>
    <rc><c>C </c><c>   1</c></rc>
    <rc><c>C </c><c>   1</c></rc>
    <rc><c>C </c><c>   1</c></rc>
    <rc><c>C </c><c>   1</c></rc>
    <rc><c>C </c><c>   1</c></rc>
    <rc><c>C </c><c>   1</c></rc>
    <rc><c>C </c><c>   1</c></rc>
    <rc><c>C </c><c>   1</c></rc>
    <rc><c>C </c><c>   1</c></rc>
    <rc><c>C </c><c>   1</c></rc>
    <rc><c>C </c><c>   1</c></rc>
    <rc><c>C </c><c>   1</c></rc>
    <rc><c>C </c><c>   1</c></rc>
    <rc><c>C </c><c>   1</c></rc>
    <rc><c>C </c><c>   1</c></rc>
    <rc><c>C </c><c>   1</c></rc>
    <rc><c>C </c><c>   1</c></rc>
    <rc><c>C </c><c>   1</c></rc>
    <rc><c>C </c><c>   1</c></rc>
    <rc><c>C </c><c>   1</c></rc>
    <rc><c>C </c><c>   1</c></rc>
    <rc><c>C </c><c>   1</c></rc>
    <rc><c>C </c><c>   1</c></rc>
    <rc><c>C </c><c>   1</c></rc>
    <rc><c>C </c><c>   1</c></rc>
    <rc><c>C </c><c>   1</c></rc>
    <rc><c>C </c><c>   1</c></rc>
    <rc><c>C </c><c>   1</c></rc>
    <rc><c>C </c><c>   1</c></rc>
    <rc><c>C </c><c>   1</c></rc>
    <rc><c>C </c><c>   1</c></rc>
    <rc><c>C </c><c>   1</c></rc>
    <rc><c>C </c><c>   1</c></rc>
    <rc><c>C </c><c>   1</c></rc>
    <rc><c>C </c><c>   1</c></rc>
    <rc><c>O </c><c>   2</c></rc>
   </set>
  </array>
  <array name="atomtypes" >
   <dimension dim="1">type</dimension>
   <field type="int">atomspertype</field>
   <field type="string">element</field>
   <field>mass</field>
   <field>valence</field>
   <field type="string">pseudopotential</field>
   <set>
    <rc><c>  50</c><c>C </c><c>     12.01100000</c><c>      4.00000000</c><c>  PAW_PBE C 08Apr2002                   </c></rc>
    <rc><c>   1</c><c>O </c><c>     16.00000000</c><c>      6.00000000</c><c>  PAW_PBE O 08Apr2002                   </c></rc>
   </set>
  </array>
 </atominfo>
 <structure name="initialpos" >
  <crystal>
   <varray name="basis" >
    <v>      12.30000019       0.00000000       0.00000000 </v>
    <v>       6.15000080      10.65211222       0.00000000 </v>
    <v>       0.00000000       0.00000000      20.00000000 </v>
   </varray>
   <i name="volume">   2620.41964732 </i>
   <varray name="rec_basis" >
    <v>       0.08130081      -0.04693905       0.00000000 </v>
    <v>       0.00000000       0.09387809       0.00000000 </v>
    <v>       0.00000000       0.00000000       0.05000000 </v>
   </varray>
  </crystal>
  <varray name="positions" >
   <v>       0.00000000       0.00000000       0.41799748 </v>
   <v>       0.20000000       0.00000000       0.41799748 </v>
   <v>       0.40000000       0.00000000       0.41799748 </v>
   <v>       0.60000000       0.00000000       0.41799748 </v>
   <v>       0.80000000       0.00000000       0.41799748 </v>
   <v>       0.00000000       0.20000000       0.41799748 </v>
   <v>       0.20000000       0.20000000       0.41799748 </v>
   <v>       0.40000000       0.20000000       0.41799748 </v>
   <v>       0.60000000       0.20000000       0.41799748 </v>
   <v>       0.80000000       0.20000000       0.41799748 </v>
   <v>       0.00000000       0.40000000       0.41799748 </v>
   <v>       0.20000000       0.40000000       0.41799748 </v>
   <v>       0.40000000       0.40000000       0.41799748 </v>
   <v>       0.60000000       0.40000000       0.41799748 </v>
   <v>       0.80000000       0.40000000       0.41799748 </v>
   <v>       0.00000000       0.60000000       0.41799748 </v>
   <v>       0.20000000       0.60000000       0.41799748 </v>
   <v>       0.40000000       0.60000000       0.41799748 </v>
   <v>       0.60000000       0.60000000       0.41799748 </v>
   <v>       0.80000000       0.60000000       0.41799748 </v>
   <v>       0.00000000       0.80000000       0.41799748 </v>
   <v>       0.20000000       0.80000000       0.41799748 </v>
   <v>       0.40000000       0.80000000       0.41799748 </v>
   <v>       0.60000000       0.80000000       0.41799748 </v>
   <v>       0.80000000       0.80000000       0.41799748 </v>
   <v>       0.06666667       0.06666660       0.41800609 </v>
   <v>       0.26666667       0.06666660       0.41800609 </v>
   <v>       0.46666667       0.06666660       0.41800609 </v>
   <v>       0.66666667       0.06666660       0.41800609 </v>
   <v>       0.86666667       0.06666660       0.41800609 </v>
   <v>       0.06666667       0.26666660       0.41800609 </v>
   <v>       0.26585366       0.26666660       0.41800609 </v>
   <v>       0.46666667       0.26666660       0.41800609 </v>
   <v>       0.66666667       0.26666660       0.41800609 </v>
   <v>       0.86666667       0.26666660       0.41800609 </v>
   <v>       0.06666667       0.46666660       0.41800609 </v>
   <v>       0.26666667       0.46666660       0.41800609 </v>
   <v>       0.46666667       0.46666660       0.41800609 </v>
   <v>       0.66666667       0.46666660       0.41800609 </v>
   <v>       0.86666667       0.46666660       0.41800609 </v>
   <v>       0.06666667       0.66666660       0.41800609 </v>
   <v>       0.26666667       0.66666660       0.41800609 </v>
   <v>       0.46666667       0.66666660       0.41800609 </v>
   <v>       0.66666667       0.66666660       0.41800609 </v>
   <v>       0.86666667       0.66666660       0.41800609 </v>
   <v>       0.06666667       0.86666660       0.41800609 </v>
   <v>       0.26666667       0.86666660       0.41800609 </v>
   <v>       0.46666667       0.86666660       0.41800609 </v>
   <v>       0.66666667       0.86666660       0.41800609 </v>
   <v>       0.86666667       0.86666660       0.41800609 </v>
   <v>       0.40000000       0.40000000       0.46800609 </v>
  </varray>
  <varray name="velocities" >
   <v>       0.00000000       0.00000000       0.00000000 </v>
   <v>       0.00000000       0.00000000       0.00000000 </v>
   <v>       0.00000000       0.00000000       0.00000000 </v>
   <v>       0.00000000       0.00000000       0.00000000 </v>
   <v>       0.00000000       0.00000000       0.00000000 </v>
   <v>       0.00000000       0.00000000       0.00000000 </v>
   <v>       0.00000000       0.00000000       0.00000000 </v>
   <v>       0.00000000       0.00000000       0.00000000 </v>
   <v>       0.00000000       0.00000000       0.00000000 </v>
   <v>       0.00000000       0.00000000       0.00000000 </v>
   <v>       0.00000000       0.00000000       0.00000000 </v>
   <v>       0.00000000       0.00000000       0.00000000 </v>
   <v>       0.00000000       0.00000000       0.00000000 </v>
   <v>       0.00000000       0.00000000       0.00000000 </v>
   <v>       0.00000000       0.00000000       0.00000000 </v>
   <v>       0.00000000       0.00000000       0.00000000 </v>
   <v>       0.00000000       0.00000000       0.00000000 </v>
   <v>       0.00000000       0.00000000       0.00000000 </v>
   <v>       0.00000000       0.00000000       0.00000000 </v>
   <v>       0.00000000       0.00000000       0.00000000 </v>
   <v>       0.00000000       0.00000000       0.00000000 </v>
   <v>       0.00000000       0.00000000       0.00000000 </v>
   <v>       0.00000000       0.00000000       0.00000000 </v>
   <v>       0.00000000       0.00000000       0.00000000 </v>
   <v>       0.00000000       0.00000000       0.00000000 </v>
   <v>       0.00000000       0.00000000       0.00000000 </v>
   <v>       0.00000000       0.00000000       0.00000000 </v>
   <v>       0.00000000       0.00000000       0.00000000 </v>
   <v>       0.00000000       0.00000000       0.00000000 </v>
   <v>       0.00000000       0.00000000       0.00000000 </v>
   <v>       0.00000000       0.00000000       0.00000000 </v>
   <v>       0.00000000       0.00000000       0.00000000 </v>
   <v>       0.00000000       0.00000000       0.00000000 </v>
   <v>       0.00000000       0.00000000       0.00000000 </v>
   <v>       0.00000000       0.00000000       0.00000000 </v>
   <v>       0.00000000       0.00000000       0.00000000 </v>
   <v>       0.00000000       0.00000000       0.00000000 </v>
   <v>       0.00000000       0.00000000       0.00000000 </v>
   <v>       0.00000000       0.00000000       0.00000000 </v>
   <v>       0.00000000       0.00000000       0.00000000 </v>
   <v>       0.00000000       0.00000000       0.00000000 </v>
   <v>       0.00000000       0.00000000       0.00000000 </v>
   <v>       0.00000000       0.00000000       0.00000000 </v>
   <v>       0.00000000       0.00000000       0.00000000 </v>
   <v>       0.00000000       0.00000000       0.00000000 </v>
   <v>       0.00000000       0.00000000       0.00000000 </v>
   <v>       0.00000000       0.00000000       0.00000000 </v>
   <v>       0.00000000       0.00000000       0.00000000 </v>
   <v>       0.00000000       0.00000000       0.00000000 </v>
   <v>       0.00000000       0.00000000       0.00000000 </v>
   <v>       0.00000000       0.00000000       0.00000000 </v>
  </varray>
 </structure>
 <calculation>
  <scstep>
   <time name="dav">    4.11    4.11</time>
   <time name="total">    4.70    4.71</time>
   <energy>
    <i name="alphaZ">     82.54348252 </i>
    <i name="ewald">  34516.26596640 </i>
    <i name="hartreedc"> -41034.57302134 </i>
    <i name="XCdc">    721.37995072 </i>
    <i name="pawpsdc">  22781.19595426 </i>
    <i name="pawaedc"> -22817.52509957 </i>
    <i name="eentropy">     -0.00059586 </i>
    <i name="bandstr">  -2491.20869437 </i>
    <i name="atom">   7788.62438962 </i>
    <i name="e_fr_energy">   -453.29766763 </i>
    <i name="e_wo_entrp">   -453.29707176 </i>
    <i name="e_0_energy">   -453.29736969 </i>
   </energy>
  </scstep>
  <scstep>
   <time name="diag">    0.89    0.89</time>
   <time name="diis">    3.75    3.75</time>
   <time name="orth">    0.04    0.04</time>
   <time name="total">    5.26    5.27</time>
   <energy>
    <i name="e_fr_energy">   -454.28554999 </i>
    <i name="e_wo_entrp">   -454.28544593 </i>
    <i name="e_0_energy">   -454.28549796 </i>
   </energy>
  </scstep>
  <scstep>
   <time name="diag">    0.89    0.89</time>
   <time name="diis">    4.08    4.09</time>
   <time name="orth">    0.04    0.04</time>
   <time name="total">    5.60    5.61</time>
   <energy>
    <i name="e_fr_energy">   -454.33784522 </i>
    <i name="e_wo_entrp">   -454.33770940 </i>
    <i name="e_0_energy">   -454.33777731 </i>
   </energy>
  </scstep>
  <scstep>
   <time name="diag">    0.89    0.89</time>
   <time name="diis">    4.14    4.15</time>
   <time name="orth">    0.04    0.04</time>
   <time name="total">    5.66    5.66</time>
   <energy>
    <i name="e_fr_energy">   -454.34170931 </i>
    <i name="e_wo_entrp">   -454.34159212 </i>
    <i name="e_0_energy">   -454.34165071 </i>
   </energy>
  </scstep>
  <scstep>
   <time name="diag">    0.89    0.89</time>
   <time name="diis">    4.00    4.00</time>
   <time name="orth">    0.04    0.04</time>
   <time name="total">    5.51    5.51</time>
   <energy>
    <i name="e_fr_energy">   -454.34182067 </i>
    <i name="e_wo_entrp">   -454.34169955 </i>
    <i name="e_0_energy">   -454.34176011 </i>
   </energy>
  </scstep>
  <scstep>
   <time name="diag">    0.89    0.89</time>
   <time name="diis">    4.02    4.02</time>
   <time name="orth">    0.04    0.04</time>
   <time name="total">    5.53    5.53</time>
   <energy>
    <i name="e_fr_energy">   -454.34184664 </i>
    <i name="e_wo_entrp">   -454.34172394 </i>
    <i name="e_0_energy">   -454.34178529 </i>
   </energy>
  </scstep>
  <scstep>
   <time name="diag">    0.92    0.92</time>
   <time name="diis">    2.93    2.93</time>
   <time name="orth">    0.04    0.04</time>
   <time name="total">    4.07    4.07</time>
   <energy>
    <i name="alphaZ">     82.54348252 </i>
    <i name="ewald">  34516.26596640 </i>
    <i name="hartreedc"> -41034.65453829 </i>
    <i name="XCdc">    721.38543440 </i>
    <i name="pawpsdc">  22777.09086004 </i>
    <i name="pawaedc"> -22813.42289585 </i>
    <i name="eentropy">     -0.00012369 </i>
    <i name="bandstr">  -2492.17442922 </i>
    <i name="atom">   7788.62438962 </i>
    <i name="e_fr_energy">   -454.34185407 </i>
    <i name="e_wo_entrp">   -454.34173038 </i>
    <i name="e_0_energy">   -454.34179223 </i>
   </energy>
  </scstep>
  <structure>
   <crystal>
    <varray name="basis" >
     <v>      12.30000019       0.00000000       0.00000000 </v>
     <v>       6.15000080      10.65211222       0.00000000 </v>
     <v>       0.00000000       0.00000000      20.00000000 </v>
    </varray>
    <i name="volume">   2620.41964732 </i>
    <varray name="rec_basis" >
     <v>       0.08130081      -0.04693905       0.00000000 </v>
     <v>       0.00000000       0.09387809       0.00000000 </v>
     <v>       0.00000000       0.00000000       0.05000000 </v>
    </varray>
   </crystal>
   <varray name="positions" >
    <v>       0.00000000       0.00000000       0.41799748 </v>
    <v>       0.20000000       0.00000000       0.41799748 </v>
    <v>       0.40000000       0.00000000       0.41799748 </v>
    <v>       0.60000000       0.00000000       0.41799748 </v>
    <v>       0.80000000       0.00000000       0.41799748 </v>
    <v>       0.00000000       0.20000000       0.41799748 </v>
    <v>       0.20000000       0.20000000       0.41799748 </v>
    <v>       0.40000000       0.20000000       0.41799748 </v>
    <v>       0.60000000       0.20000000       0.41799748 </v>
    <v>       0.80000000       0.20000000       0.41799748 </v>
    <v>       0.00000000       0.40000000       0.41799748 </v>
    <v>       0.20000000       0.40000000       0.41799748 </v>
    <v>       0.40000000       0.40000000       0.41799748 </v>
    <v>       0.60000000       0.40000000       0.41799748 </v>
    <v>       0.80000000       0.40000000       0.41799748 </v>
    <v>       0.00000000       0.60000000       0.41799748 </v>
    <v>       0.20000000       0.60000000       0.41799748 </v>
    <v>       0.40000000       0.60000000       0.41799748 </v>
    <v>       0.60000000       0.60000000       0.41799748 </v>
    <v>       0.80000000       0.60000000       0.41799748 </v>
    <v>       0.00000000       0.80000000       0.41799748 </v>
    <v>       0.20000000       0.80000000       0.41799748 </v>
    <v>       0.40000000       0.80000000       0.41799748 </v>
    <v>       0.60000000       0.80000000       0.41799748 </v>
    <v>       0.80000000       0.80000000       0.41799748 </v>
    <v>       0.06666667       0.06666660       0.41800609 </v>
    <v>       0.26666667       0.06666660       0.41800609 </v>
    <v>       0.46666667       0.06666660       0.41800609 </v>
    <v>       0.66666667       0.06666660       0.41800609 </v>
    <v>       0.86666667       0.06666660       0.41800609 </v>
    <v>       0.06666667       0.26666660       0.41800609 </v>
    <v>       0.26585366       0.26666660       0.41800609 </v>
    <v>       0.46666667       0.26666660       0.41800609 </v>
    <v>       0.66666667       0.26666660       0.41800609 </v>
    <v>       0.86666667       0.26666660       0.41800609 </v>
    <v>       0.06666667       0.46666660       0.41800609 </v>
    <v>       0.26666667       0.46666660       0.41800609 </v>
    <v>       0.46666667       0.46666660       0.41800609 </v>
    <v>       0.66666667       0.46666660       0.41800609 </v>
    <v>       0.86666667       0.46666660       0.41800609 </v>
    <v>       0.06666667       0.66666660       0.41800609 </v>
    <v>       0.26666667       0.66666660       0.41800609 </v>
    <v>       0.46666667       0.66666660       0.41800609 </v>
    <v>       0.66666667       0.66666660       0.41800609 </v>
    <v>       0.86666667       0.66666660       0.41800609 </v>
    <v>       0.06666667       0.86666660       0.41800609 </v>
    <v>       0.26666667       0.86666660       0.41800609 </v>
    <v>       0.46666667       0.86666660       0.41800609 </v>
    <v>       0.66666667       0.86666660       0.41800609 </v>
    <v>       0.86666667       0.86666660       0.41800609 </v>
    <v>       0.40000000       0.40000000       0.46800609 </v>
   </varray>
  </structure>
  <varray name="forces" >
   <v>      -0.04146879      -0.02509319       0.00925998 </v>
   <v>       0.05815484      -0.02359034       0.00954670 </v>
   <v>      -0.17811180       0.01264431      -0.02645210 </v>
   <v>       0.00623679      -0.21068252      -0.02715645 </v>
   <v>       0.16112509       0.01537648      -0.02550572 </v>
   <v>       0.00136893       0.06316996       0.00958973 </v>
   <v>       0.20396878       0.18081677      -0.00018730 </v>
   <v>      -0.10670289      -0.13707954       0.16317048 </v>
   <v>      -0.09485801      -0.21083605       0.16340128 </v>
   <v>      -0.42928598       0.24589386      -0.00005026 </v>
   <v>      -0.06538996      -0.15830105      -0.02611503 </v>
   <v>      -0.23349328       0.17733730       0.16591341 </v>
   <v>       0.00618948      -0.01856532     -48.15232139 </v>
   <v>       0.13210349       0.18372674       0.16487696 </v>
   <v>       0.06996623      -0.14596342      -0.02613830 </v>
   <v>      -0.18549801       0.10625072      -0.02721865 </v>
   <v>      -0.22811096       0.02356403       0.16558412 </v>
   <v>       0.22475860       0.02166394       0.16548727 </v>
   <v>       0.18013026       0.10309954      -0.02705549 </v>
   <v>       0.00070212      -0.01473939       0.01782401 </v>
   <v>       0.09365421       0.13127050      -0.02616049 </v>
   <v>      -0.00063621      -0.49345303       0.00003349 </v>
   <v>      -0.09224827       0.13226124      -0.02599640 </v>
   <v>      -0.01010953       0.00416113       0.01792951 </v>
   <v>       0.01203955       0.00734931       0.01790141 </v>
   <v>      -0.00779074      -0.00155568      -0.00611906 </v>
   <v>       0.10385425      -0.25584841       0.01037449 </v>
   <v>       0.20307320       0.28477323       0.25835823 </v>
   <v>      -0.19609083       0.24994762       0.25667107 </v>
   <v>      -0.10047345      -0.21548928       0.01008521 </v>
   <v>      -0.18828667       0.19632678       0.00990235 </v>
   <v>       0.18093225      -0.24088636      -0.35397708 </v>
   <v>      -0.05533526      -5.08991356      -4.36320096 </v>
   <v>       0.44015711      -0.25392927      -0.35466312 </v>
   <v>       0.13922858       0.19308415       0.01011198 </v>
   <v>       0.32153592       0.07366006       0.25697750 </v>
   <v>      -4.38462939       2.50637029      -4.33958092 </v>
   <v>       4.39215905       2.54014993      -4.34516988 </v>
   <v>      -0.31654805       0.04413168       0.25700744 </v>
   <v>      -0.00493125       0.08440138      -0.02182887 </v>
   <v>       0.11916758      -0.29429528       0.25694968 </v>
   <v>      -0.00043630       0.50794038      -0.35609988 </v>
   <v>      -0.12056087      -0.29479565       0.25679698 </v>
   <v>      -0.08275815      -0.04574710      -0.02640722 </v>
   <v>       0.08332351      -0.04739851      -0.02660653 </v>
   <v>      -0.23615730       0.02222269       0.01011125 </v>
   <v>       0.23714817       0.02258068       0.01016893 </v>
   <v>       0.06881592      -0.03989745      -0.02238160 </v>
   <v>      -0.00018269       0.09543742      -0.02643210 </v>
   <v>      -0.07216610      -0.04168371      -0.02202306 </v>
   <v>      -0.00753315       0.03013198      59.98081442 </v>
  </varray>
  <varray name="stress" >
   <v>       9.50098191       0.06629604      -0.00465635 </v>
   <v>       0.06629603       9.51968745       0.01830839 </v>
   <v>      -0.00465636       0.01830840      31.89483437 </v>
  </varray>
  <energy>
   <i name="e_fr_energy">   -454.34185407 </i>
   <i name="e_wo_entrp">   -454.34179223 </i>
   <i name="e_0_energy">     -0.00012369 </i>
  </energy>
  <time name="totalsc">   42.43   42.48</time>
  <eigenvalues>
   <array>
    <dimension dim="1">band</dimension>
    <dimension dim="2">kpoint</dimension>
    <dimension dim="3">spin</dimension>
    <field>eigene</field>
    <field>occ</field>
    <set>
     <set comment="spin 1">
      <set comment="kpoint 1">
       <r>  -31.7388    1.0000 </r>
       <r>  -22.2717    1.0000 </r>
       <r>  -21.5046    1.0000 </r>
       <r>  -21.5010    1.0000 </r>
       <r>  -21.3958    1.0000 </r>
       <r>  -21.3943    1.0000 </r>
       <r>  -21.3937    1.0000 </r>
       <r>  -20.8710    1.0000 </r>
       <r>  -19.8765    1.0000 </r>
       <r>  -19.8736    1.0000 </r>
       <r>  -19.5525    1.0000 </r>
       <r>  -19.5481    1.0000 </r>
       <r>  -19.5379    1.0000 </r>
       <r>  -19.1907    1.0000 </r>
       <r>  -18.9011    1.0000 </r>
       <r>  -18.9003    1.0000 </r>
       <r>  -18.6491    1.0000 </r>
       <r>  -18.6437    1.0000 </r>
       <r>  -18.6372    1.0000 </r>
       <r>  -17.8854    1.0000 </r>
       <r>  -17.0214    1.0000 </r>
       <r>  -17.0199    1.0000 </r>
       <r>  -16.4749    1.0000 </r>
       <r>  -16.4647    1.0000 </r>
       <r>  -16.4578    1.0000 </r>
       <r>  -16.0488    1.0000 </r>
       <r>  -15.9952    1.0000 </r>
       <r>  -15.9937    1.0000 </r>
       <r>  -15.4985    1.0000 </r>
       <r>  -15.4946    1.0000 </r>
       <r>  -15.4893    1.0000 </r>
       <r>  -15.0908    1.0000 </r>
       <r>  -14.6320    1.0000 </r>
       <r>  -14.6294    1.0000 </r>
       <r>  -14.1565    1.0000 </r>
       <r>  -14.1470    1.0000 </r>
       <r>  -14.1388    1.0000 </r>
       <r>  -13.9640    1.0000 </r>
       <r>  -12.9921    1.0000 </r>
       <r>  -12.9908    1.0000 </r>
       <r>  -12.0306    1.0000 </r>
       <r>  -11.7692    1.0000 </r>
       <r>  -11.7642    1.0000 </r>
       <r>  -11.7574    1.0000 </r>
       <r>  -11.6907    1.0000 </r>
       <r>  -11.6826    1.0000 </r>
       <r>  -11.6528    1.0000 </r>
       <r>  -11.6515    1.0000 </r>
       <r>  -11.6500    1.0000 </r>
       <r>  -11.6467    1.0000 </r>
       <r>  -10.8034    1.0000 </r>
       <r>  -10.8012    1.0000 </r>
       <r>  -10.4280    1.0000 </r>
       <r>  -10.3349    1.0000 </r>
       <r>  -10.2893    1.0000 </r>
       <r>  -10.2861    1.0000 </r>
       <r>  -10.2707    1.0000 </r>
       <r>  -10.0824    1.0000 </r>
       <r>   -9.6850    1.0000 </r>
       <r>   -9.6834    1.0000 </r>
       <r>   -9.3284    1.0000 </r>
       <r>   -9.3253    1.0000 </r>
       <r>   -9.3009    1.0000 </r>
       <r>   -9.2800    1.0000 </r>
       <r>   -9.2778    1.0000 </r>
       <r>   -9.0455    1.0000 </r>
       <r>   -9.0130    1.0000 </r>
       <r>   -9.0039    1.0000 </r>
       <r>   -8.9475    1.0000 </r>
       <r>   -8.9455    1.0000 </r>
       <r>   -8.9425    1.0000 </r>
       <r>   -8.9398    1.0000 </r>
       <r>   -8.9185    1.0000 </r>
       <r>   -8.9009    1.0000 </r>
       <r>   -8.8912    1.0000 </r>
       <r>   -8.4349    1.0000 </r>
       <r>   -7.8056    1.0000 </r>
       <r>   -7.8003    1.0000 </r>
       <r>   -7.3344    1.0000 </r>
       <r>   -7.3234    1.0000 </r>
       <r>   -7.3062    1.0000 </r>
       <r>   -7.2999    1.0000 </r>
       <r>   -7.2984    1.0000 </r>
       <r>   -7.2924    1.0000 </r>
       <r>   -7.1634    1.0000 </r>
       <r>   -7.1601    1.0000 </r>
       <r>   -7.1539    1.0000 </r>
       <r>   -6.7508    1.0000 </r>
       <r>   -6.5076    1.0000 </r>
       <r>   -6.5072    1.0000 </r>
       <r>   -6.2711    1.0000 </r>
       <r>   -6.2467    1.0000 </r>
       <r>   -6.2411    1.0000 </r>
       <r>   -5.9268    1.0000 </r>
       <r>   -5.9173    1.0000 </r>
       <r>   -5.1964    1.0000 </r>
       <r>   -4.7631    1.0000 </r>
       <r>   -4.7619    1.0000 </r>
       <r>   -4.2720    1.0000 </r>
       <r>   -4.2694    1.0000 </r>
       <r>   -4.2662    1.0000 </r>
       <r>   -3.2143    1.0000 </r>
       <r>   -3.2128    1.0000 </r>
       <r>   -2.9170    0.0023 </r>
       <r>   -1.4611    0.0000 </r>
       <r>   -1.4569    0.0000 </r>
       <r>   -1.4491    0.0000 </r>
       <r>   -0.9935    0.0000 </r>
       <r>   -0.9909    0.0000 </r>
       <r>   -0.5425    0.0000 </r>
       <r>    0.4141    0.0000 </r>
       <r>    0.4214    0.0000 </r>
       <r>    0.4235    0.0000 </r>
       <r>    0.5615    0.0000 </r>
       <r>    0.8430    0.0000 </r>
       <r>    0.8443    0.0000 </r>
       <r>    1.2921    0.0000 </r>
       <r>    1.3390    0.0000 </r>
       <r>    1.6818    0.0000 </r>
       <r>    1.7997    0.0000 </r>
       <r>    1.8008    0.0000 </r>
       <r>    1.8024    0.0000 </r>
       <r>    1.8256    0.0000 </r>
       <r>    1.8285    0.0000 </r>
       <r>    2.0328    0.0000 </r>
       <r>    2.1763    0.0000 </r>
       <r>    2.1790    0.0000 </r>
       <r>    2.1818    0.0000 </r>
       <r>    2.3458    0.0000 </r>
       <r>    2.3491    0.0000 </r>
       <r>    2.6141    0.0000 </r>
       <r>    2.6431    0.0000 </r>
      </set>
      <set comment="kpoint 2">
       <r>  -31.7389    1.0000 </r>
       <r>  -22.1899    1.0000 </r>
       <r>  -21.8694    1.0000 </r>
       <r>  -21.6608    1.0000 </r>
       <r>  -21.4544    1.0000 </r>
       <r>  -21.0340    1.0000 </r>
       <r>  -20.8967    1.0000 </r>
       <r>  -20.7274    1.0000 </r>
       <r>  -20.4206    1.0000 </r>
       <r>  -20.1602    1.0000 </r>
       <r>  -19.7838    1.0000 </r>
       <r>  -19.6973    1.0000 </r>
       <r>  -19.3286    1.0000 </r>
       <r>  -19.2429    1.0000 </r>
       <r>  -19.0628    1.0000 </r>
       <r>  -18.5934    1.0000 </r>
       <r>  -18.4573    1.0000 </r>
       <r>  -18.1215    1.0000 </r>
       <r>  -18.0640    1.0000 </r>
       <r>  -17.5920    1.0000 </r>
       <r>  -17.4964    1.0000 </r>
       <r>  -17.2992    1.0000 </r>
       <r>  -17.2770    1.0000 </r>
       <r>  -16.8522    1.0000 </r>
       <r>  -16.6554    1.0000 </r>
       <r>  -16.1771    1.0000 </r>
       <r>  -15.9749    1.0000 </r>
       <r>  -15.8472    1.0000 </r>
       <r>  -15.2975    1.0000 </r>
       <r>  -15.1688    1.0000 </r>
       <r>  -15.1365    1.0000 </r>
       <r>  -14.8858    1.0000 </r>
       <r>  -14.7818    1.0000 </r>
       <r>  -14.4799    1.0000 </r>
       <r>  -14.4525    1.0000 </r>
       <r>  -13.7680    1.0000 </r>
       <r>  -13.7610    1.0000 </r>
       <r>  -13.1958    1.0000 </r>
       <r>  -13.0911    1.0000 </r>
       <r>  -12.9301    1.0000 </r>
       <r>  -12.9031    1.0000 </r>
       <r>  -12.5851    1.0000 </r>
       <r>  -12.5471    1.0000 </r>
       <r>  -12.3897    1.0000 </r>
       <r>  -12.0218    1.0000 </r>
       <r>  -11.6649    1.0000 </r>
       <r>  -11.4480    1.0000 </r>
       <r>  -11.2972    1.0000 </r>
       <r>  -11.1211    1.0000 </r>
       <r>  -10.9189    1.0000 </r>
       <r>  -10.8496    1.0000 </r>
       <r>  -10.5812    1.0000 </r>
       <r>  -10.5295    1.0000 </r>
       <r>  -10.2856    1.0000 </r>
       <r>  -10.2377    1.0000 </r>
       <r>  -10.1612    1.0000 </r>
       <r>  -10.0492    1.0000 </r>
       <r>   -9.8539    1.0000 </r>
       <r>   -9.8181    1.0000 </r>
       <r>   -9.6527    1.0000 </r>
       <r>   -9.6056    1.0000 </r>
       <r>   -9.5597    1.0000 </r>
       <r>   -9.5262    1.0000 </r>
       <r>   -9.3693    1.0000 </r>
       <r>   -9.3402    1.0000 </r>
       <r>   -9.2605    1.0000 </r>
       <r>   -9.1747    1.0000 </r>
       <r>   -9.1025    1.0000 </r>
       <r>   -9.0818    1.0000 </r>
       <r>   -8.8646    1.0000 </r>
       <r>   -8.7142    1.0000 </r>
       <r>   -8.6644    1.0000 </r>
       <r>   -8.5037    1.0000 </r>
       <r>   -8.4049    1.0000 </r>
       <r>   -8.2904    1.0000 </r>
       <r>   -8.1342    1.0000 </r>
       <r>   -8.0948    1.0000 </r>
       <r>   -8.0672    1.0000 </r>
       <r>   -7.9707    1.0000 </r>
       <r>   -7.8064    1.0000 </r>
       <r>   -7.6166    1.0000 </r>
       <r>   -7.3577    1.0000 </r>
       <r>   -7.3314    1.0000 </r>
       <r>   -7.2657    1.0000 </r>
       <r>   -7.1925    1.0000 </r>
       <r>   -6.9213    1.0000 </r>
       <r>   -6.8738    1.0000 </r>
       <r>   -6.6963    1.0000 </r>
       <r>   -6.5916    1.0000 </r>
       <r>   -6.3453    1.0000 </r>
       <r>   -6.1875    1.0000 </r>
       <r>   -6.0753    1.0000 </r>
       <r>   -5.9202    1.0000 </r>
       <r>   -5.7387    1.0000 </r>
       <r>   -5.6401    1.0000 </r>
       <r>   -5.3256    1.0000 </r>
       <r>   -5.1124    1.0000 </r>
       <r>   -4.9690    1.0000 </r>
       <r>   -4.9253    1.0000 </r>
       <r>   -4.2705    1.0000 </r>
       <r>   -4.1669    1.0000 </r>
       <r>   -3.3380    1.0000 </r>
       <r>   -3.1361    0.9996 </r>
       <r>   -2.8022    0.0000 </r>
       <r>   -1.5911    0.0000 </r>
       <r>   -1.4229    0.0000 </r>
       <r>   -0.8415    0.0000 </r>
       <r>   -0.8192    0.0000 </r>
       <r>   -0.7019    0.0000 </r>
       <r>   -0.6649    0.0000 </r>
       <r>   -0.1296    0.0000 </r>
       <r>   -0.0080    0.0000 </r>
       <r>    0.2930    0.0000 </r>
       <r>    0.7037    0.0000 </r>
       <r>    0.7298    0.0000 </r>
       <r>    1.0992    0.0000 </r>
       <r>    1.1748    0.0000 </r>
       <r>    1.3623    0.0000 </r>
       <r>    1.4623    0.0000 </r>
       <r>    1.5369    0.0000 </r>
       <r>    1.5707    0.0000 </r>
       <r>    1.6376    0.0000 </r>
       <r>    1.8307    0.0000 </r>
       <r>    1.9115    0.0000 </r>
       <r>    2.0374    0.0000 </r>
       <r>    2.2208    0.0000 </r>
       <r>    2.2715    0.0000 </r>
       <r>    2.3281    0.0000 </r>
       <r>    2.3395    0.0000 </r>
       <r>    2.3952    0.0000 </r>
       <r>    2.4572    0.0000 </r>
       <r>    2.7968    0.0000 </r>
      </set>
      <set comment="kpoint 3">
       <r>  -31.7389    1.0000 </r>
       <r>  -22.1894    1.0000 </r>
       <r>  -21.8703    1.0000 </r>
       <r>  -21.6623    1.0000 </r>
       <r>  -21.4522    1.0000 </r>
       <r>  -21.0353    1.0000 </r>
       <r>  -20.8949    1.0000 </r>
       <r>  -20.7264    1.0000 </r>
       <r>  -20.4211    1.0000 </r>
       <r>  -20.1612    1.0000 </r>
       <r>  -19.7868    1.0000 </r>
       <r>  -19.6971    1.0000 </r>
       <r>  -19.3278    1.0000 </r>
       <r>  -19.2415    1.0000 </r>
       <r>  -19.0630    1.0000 </r>
       <r>  -18.5925    1.0000 </r>
       <r>  -18.4570    1.0000 </r>
       <r>  -18.1195    1.0000 </r>
       <r>  -18.0638    1.0000 </r>
       <r>  -17.5929    1.0000 </r>
       <r>  -17.4961    1.0000 </r>
       <r>  -17.3008    1.0000 </r>
       <r>  -17.2769    1.0000 </r>
       <r>  -16.8533    1.0000 </r>
       <r>  -16.6589    1.0000 </r>
       <r>  -16.1731    1.0000 </r>
       <r>  -15.9775    1.0000 </r>
       <r>  -15.8480    1.0000 </r>
       <r>  -15.2946    1.0000 </r>
       <r>  -15.1693    1.0000 </r>
       <r>  -15.1346    1.0000 </r>
       <r>  -14.8816    1.0000 </r>
       <r>  -14.7831    1.0000 </r>
       <r>  -14.4786    1.0000 </r>
       <r>  -14.4560    1.0000 </r>
       <r>  -13.7670    1.0000 </r>
       <r>  -13.7622    1.0000 </r>
       <r>  -13.1947    1.0000 </r>
       <r>  -13.0929    1.0000 </r>
       <r>  -12.9309    1.0000 </r>
       <r>  -12.9040    1.0000 </r>
       <r>  -12.5864    1.0000 </r>
       <r>  -12.5497    1.0000 </r>
       <r>  -12.3882    1.0000 </r>
       <r>  -12.0232    1.0000 </r>
       <r>  -11.6626    1.0000 </r>
       <r>  -11.4453    1.0000 </r>
       <r>  -11.2962    1.0000 </r>
       <r>  -11.1201    1.0000 </r>
       <r>  -10.9193    1.0000 </r>
       <r>  -10.8489    1.0000 </r>
       <r>  -10.5830    1.0000 </r>
       <r>  -10.5303    1.0000 </r>
       <r>  -10.2845    1.0000 </r>
       <r>  -10.2374    1.0000 </r>
       <r>  -10.1600    1.0000 </r>
       <r>  -10.0493    1.0000 </r>
       <r>   -9.8543    1.0000 </r>
       <r>   -9.8204    1.0000 </r>
       <r>   -9.6519    1.0000 </r>
       <r>   -9.6071    1.0000 </r>
       <r>   -9.5601    1.0000 </r>
       <r>   -9.5263    1.0000 </r>
       <r>   -9.3707    1.0000 </r>
       <r>   -9.3393    1.0000 </r>
       <r>   -9.2591    1.0000 </r>
       <r>   -9.1751    1.0000 </r>
       <r>   -9.1036    1.0000 </r>
       <r>   -9.0823    1.0000 </r>
       <r>   -8.8653    1.0000 </r>
       <r>   -8.7143    1.0000 </r>
       <r>   -8.6634    1.0000 </r>
       <r>   -8.5034    1.0000 </r>
       <r>   -8.3994    1.0000 </r>
       <r>   -8.2860    1.0000 </r>
       <r>   -8.1342    1.0000 </r>
       <r>   -8.0957    1.0000 </r>
       <r>   -8.0651    1.0000 </r>
       <r>   -7.9741    1.0000 </r>
       <r>   -7.8072    1.0000 </r>
       <r>   -7.6188    1.0000 </r>
       <r>   -7.3604    1.0000 </r>
       <r>   -7.3328    1.0000 </r>
       <r>   -7.2673    1.0000 </r>
       <r>   -7.1968    1.0000 </r>
       <r>   -6.9211    1.0000 </r>
       <r>   -6.8719    1.0000 </r>
       <r>   -6.6920    1.0000 </r>
       <r>   -6.5919    1.0000 </r>
       <r>   -6.3484    1.0000 </r>
       <r>   -6.1838    1.0000 </r>
       <r>   -6.0736    1.0000 </r>
       <r>   -5.9207    1.0000 </r>
       <r>   -5.7371    1.0000 </r>
       <r>   -5.6405    1.0000 </r>
       <r>   -5.3252    1.0000 </r>
       <r>   -5.1130    1.0000 </r>
       <r>   -4.9700    1.0000 </r>
       <r>   -4.9251    1.0000 </r>
       <r>   -4.2700    1.0000 </r>
       <r>   -4.1702    1.0000 </r>
       <r>   -3.3334    1.0000 </r>
       <r>   -3.1368    0.9996 </r>
       <r>   -2.8055    0.0000 </r>
       <r>   -1.5871    0.0000 </r>
       <r>   -1.4231    0.0000 </r>
       <r>   -0.8411    0.0000 </r>
       <r>   -0.8193    0.0000 </r>
       <r>   -0.7026    0.0000 </r>
       <r>   -0.6672    0.0000 </r>
       <r>   -0.1276    0.0000 </r>
       <r>   -0.0089    0.0000 </r>
       <r>    0.2927    0.0000 </r>
       <r>    0.7038    0.0000 </r>
       <r>    0.7266    0.0000 </r>
       <r>    1.1002    0.0000 </r>
       <r>    1.1769    0.0000 </r>
       <r>    1.3616    0.0000 </r>
       <r>    1.4633    0.0000 </r>
       <r>    1.5365    0.0000 </r>
       <r>    1.5712    0.0000 </r>
       <r>    1.6386    0.0000 </r>
       <r>    1.8316    0.0000 </r>
       <r>    1.9121    0.0000 </r>
       <r>    2.0389    0.0000 </r>
       <r>    2.2285    0.0000 </r>
       <r>    2.2748    0.0000 </r>
       <r>    2.3359    0.0000 </r>
       <r>    2.4263    0.0000 </r>
       <r>    2.7402    0.0000 </r>
       <r>    3.2539    0.0000 </r>
       <r>    3.6142    0.0000 </r>
      </set>
      <set comment="kpoint 4">
       <r>  -31.7389    1.0000 </r>
       <r>  -22.1898    1.0000 </r>
       <r>  -21.8691    1.0000 </r>
       <r>  -21.6606    1.0000 </r>
       <r>  -21.4564    1.0000 </r>
       <r>  -21.0342    1.0000 </r>
       <r>  -20.8951    1.0000 </r>
       <r>  -20.7249    1.0000 </r>
       <r>  -20.4194    1.0000 </r>
       <r>  -20.1631    1.0000 </r>
       <r>  -19.7880    1.0000 </r>
       <r>  -19.6980    1.0000 </r>
       <r>  -19.3284    1.0000 </r>
       <r>  -19.2428    1.0000 </r>
       <r>  -19.0576    1.0000 </r>
       <r>  -18.5918    1.0000 </r>
       <r>  -18.4604    1.0000 </r>
       <r>  -18.1208    1.0000 </r>
       <r>  -18.0620    1.0000 </r>
       <r>  -17.5933    1.0000 </r>
       <r>  -17.4960    1.0000 </r>
       <r>  -17.3008    1.0000 </r>
       <r>  -17.2756    1.0000 </r>
       <r>  -16.8546    1.0000 </r>
       <r>  -16.6578    1.0000 </r>
       <r>  -16.1759    1.0000 </r>
       <r>  -15.9775    1.0000 </r>
       <r>  -15.8456    1.0000 </r>
       <r>  -15.2994    1.0000 </r>
       <r>  -15.1684    1.0000 </r>
       <r>  -15.1306    1.0000 </r>
       <r>  -14.8842    1.0000 </r>
       <r>  -14.7805    1.0000 </r>
       <r>  -14.4774    1.0000 </r>
       <r>  -14.4553    1.0000 </r>
       <r>  -13.7724    1.0000 </r>
       <r>  -13.7589    1.0000 </r>
       <r>  -13.1953    1.0000 </r>
       <r>  -13.0892    1.0000 </r>
       <r>  -12.9343    1.0000 </r>
       <r>  -12.9060    1.0000 </r>
       <r>  -12.5848    1.0000 </r>
       <r>  -12.5528    1.0000 </r>
       <r>  -12.3900    1.0000 </r>
       <r>  -12.0155    1.0000 </r>
       <r>  -11.6643    1.0000 </r>
       <r>  -11.4464    1.0000 </r>
       <r>  -11.2967    1.0000 </r>
       <r>  -11.1215    1.0000 </r>
       <r>  -10.9141    1.0000 </r>
       <r>  -10.8463    1.0000 </r>
       <r>  -10.5849    1.0000 </r>
       <r>  -10.5315    1.0000 </r>
       <r>  -10.2856    1.0000 </r>
       <r>  -10.2377    1.0000 </r>
       <r>  -10.1587    1.0000 </r>
       <r>  -10.0506    1.0000 </r>
       <r>   -9.8535    1.0000 </r>
       <r>   -9.8212    1.0000 </r>
       <r>   -9.6561    1.0000 </r>
       <r>   -9.6048    1.0000 </r>
       <r>   -9.5643    1.0000 </r>
       <r>   -9.5249    1.0000 </r>
       <r>   -9.3698    1.0000 </r>
       <r>   -9.3433    1.0000 </r>
       <r>   -9.2630    1.0000 </r>
       <r>   -9.1726    1.0000 </r>
       <r>   -9.0996    1.0000 </r>
       <r>   -9.0821    1.0000 </r>
       <r>   -8.8640    1.0000 </r>
       <r>   -8.7123    1.0000 </r>
       <r>   -8.6645    1.0000 </r>
       <r>   -8.5036    1.0000 </r>
       <r>   -8.3948    1.0000 </r>
       <r>   -8.2881    1.0000 </r>
       <r>   -8.1312    1.0000 </r>
       <r>   -8.0950    1.0000 </r>
       <r>   -8.0593    1.0000 </r>
       <r>   -7.9708    1.0000 </r>
       <r>   -7.8083    1.0000 </r>
       <r>   -7.6296    1.0000 </r>
       <r>   -7.3630    1.0000 </r>
       <r>   -7.3348    1.0000 </r>
       <r>   -7.2680    1.0000 </r>
       <r>   -7.1967    1.0000 </r>
       <r>   -6.9233    1.0000 </r>
       <r>   -6.8727    1.0000 </r>
       <r>   -6.6894    1.0000 </r>
       <r>   -6.5881    1.0000 </r>
       <r>   -6.3509    1.0000 </r>
       <r>   -6.1826    1.0000 </r>
       <r>   -6.0712    1.0000 </r>
       <r>   -5.9230    1.0000 </r>
       <r>   -5.7383    1.0000 </r>
       <r>   -5.6387    1.0000 </r>
       <r>   -5.3237    1.0000 </r>
       <r>   -5.1140    1.0000 </r>
       <r>   -4.9699    1.0000 </r>
       <r>   -4.9222    1.0000 </r>
       <r>   -4.2744    1.0000 </r>
       <r>   -4.1685    1.0000 </r>
       <r>   -3.3371    1.0000 </r>
       <r>   -3.1347    0.9996 </r>
       <r>   -2.8035    0.0000 </r>
       <r>   -1.5911    0.0000 </r>
       <r>   -1.4173    0.0000 </r>
       <r>   -0.8408    0.0000 </r>
       <r>   -0.8188    0.0000 </r>
       <r>   -0.7065    0.0000 </r>
       <r>   -0.6670    0.0000 </r>
       <r>   -0.1305    0.0000 </r>
       <r>   -0.0058    0.0000 </r>
       <r>    0.2937    0.0000 </r>
       <r>    0.7039    0.0000 </r>
       <r>    0.7278    0.0000 </r>
       <r>    1.0978    0.0000 </r>
       <r>    1.1727    0.0000 </r>
       <r>    1.3666    0.0000 </r>
       <r>    1.4641    0.0000 </r>
       <r>    1.5620    0.0000 </r>
       <r>    1.5802    0.0000 </r>
       <r>    1.7504    0.0000 </r>
       <r>    1.8319    0.0000 </r>
       <r>    2.1806    0.0000 </r>
       <r>    2.3345    0.0000 </r>
       <r>    2.3964    0.0000 </r>
       <r>    2.6127    0.0000 </r>
       <r>    2.7871    0.0000 </r>
       <r>    2.8446    0.0000 </r>
       <r>    3.2038    0.0000 </r>
       <r>    3.5954    0.0000 </r>
       <r>    4.1688    0.0000 </r>
      </set>
      <set comment="kpoint 5">
       <r>  -31.7389    1.0000 </r>
       <r>  -22.0817    1.0000 </r>
       <r>  -22.0074    1.0000 </r>
       <r>  -21.8016    1.0000 </r>
       <r>  -21.1706    1.0000 </r>
       <r>  -21.1508    1.0000 </r>
       <r>  -20.8662    1.0000 </r>
       <r>  -20.4122    1.0000 </r>
       <r>  -20.3365    1.0000 </r>
       <r>  -20.1719    1.0000 </r>
       <r>  -20.1531    1.0000 </r>
       <r>  -20.1428    1.0000 </r>
       <r>  -19.5640    1.0000 </r>
       <r>  -18.8299    1.0000 </r>
       <r>  -18.6722    1.0000 </r>
       <r>  -18.3721    1.0000 </r>
       <r>  -18.3508    1.0000 </r>
       <r>  -18.3354    1.0000 </r>
       <r>  -17.9284    1.0000 </r>
       <r>  -17.8025    1.0000 </r>
       <r>  -17.5996    1.0000 </r>
       <r>  -17.2612    1.0000 </r>
       <r>  -17.1532    1.0000 </r>
       <r>  -17.1224    1.0000 </r>
       <r>  -16.5452    1.0000 </r>
       <r>  -16.4377    1.0000 </r>
       <r>  -16.2829    1.0000 </r>
       <r>  -15.8065    1.0000 </r>
       <r>  -15.6252    1.0000 </r>
       <r>  -15.1750    1.0000 </r>
       <r>  -14.9697    1.0000 </r>
       <r>  -14.6533    1.0000 </r>
       <r>  -13.9669    1.0000 </r>
       <r>  -13.9382    1.0000 </r>
       <r>  -13.9225    1.0000 </r>
       <r>  -13.8701    1.0000 </r>
       <r>  -13.8607    1.0000 </r>
       <r>  -13.7936    1.0000 </r>
       <r>  -13.6754    1.0000 </r>
       <r>  -13.4940    1.0000 </r>
       <r>  -13.0371    1.0000 </r>
       <r>  -12.4740    1.0000 </r>
       <r>  -12.2556    1.0000 </r>
       <r>  -12.0713    1.0000 </r>
       <r>  -11.8246    1.0000 </r>
       <r>  -11.7752    1.0000 </r>
       <r>  -11.5626    1.0000 </r>
       <r>  -11.5440    1.0000 </r>
       <r>  -11.5221    1.0000 </r>
       <r>  -10.9247    1.0000 </r>
       <r>  -10.8151    1.0000 </r>
       <r>  -10.5308    1.0000 </r>
       <r>  -10.2070    1.0000 </r>
       <r>  -10.2038    1.0000 </r>
       <r>  -10.1941    1.0000 </r>
       <r>  -10.0960    1.0000 </r>
       <r>  -10.0534    1.0000 </r>
       <r>  -10.0218    1.0000 </r>
       <r>   -9.9029    1.0000 </r>
       <r>   -9.7517    1.0000 </r>
       <r>   -9.7472    1.0000 </r>
       <r>   -9.5658    1.0000 </r>
       <r>   -9.4352    1.0000 </r>
       <r>   -9.4081    1.0000 </r>
       <r>   -9.1996    1.0000 </r>
       <r>   -9.0456    1.0000 </r>
       <r>   -9.0336    1.0000 </r>
       <r>   -8.9024    1.0000 </r>
       <r>   -8.8846    1.0000 </r>
       <r>   -8.6877    1.0000 </r>
       <r>   -8.6447    1.0000 </r>
       <r>   -8.6353    1.0000 </r>
       <r>   -8.6153    1.0000 </r>
       <r>   -8.5823    1.0000 </r>
       <r>   -8.3735    1.0000 </r>
       <r>   -8.2568    1.0000 </r>
       <r>   -8.1620    1.0000 </r>
       <r>   -8.0343    1.0000 </r>
       <r>   -7.9824    1.0000 </r>
       <r>   -7.8793    1.0000 </r>
       <r>   -7.8605    1.0000 </r>
       <r>   -7.8545    1.0000 </r>
       <r>   -7.2213    1.0000 </r>
       <r>   -7.1840    1.0000 </r>
       <r>   -7.1257    1.0000 </r>
       <r>   -6.8858    1.0000 </r>
       <r>   -6.7208    1.0000 </r>
       <r>   -6.6174    1.0000 </r>
       <r>   -6.4574    1.0000 </r>
       <r>   -6.2679    1.0000 </r>
       <r>   -6.1014    1.0000 </r>
       <r>   -5.9156    1.0000 </r>
       <r>   -5.9121    1.0000 </r>
       <r>   -5.8968    1.0000 </r>
       <r>   -5.4522    1.0000 </r>
       <r>   -5.4238    1.0000 </r>
       <r>   -5.1239    1.0000 </r>
       <r>   -5.0159    1.0000 </r>
       <r>   -4.9785    1.0000 </r>
       <r>   -4.9587    1.0000 </r>
       <r>   -3.7314    1.0000 </r>
       <r>   -3.4614    1.0000 </r>
       <r>   -3.2786    1.0000 </r>
       <r>   -2.3863    0.0000 </r>
       <r>   -2.2213    0.0000 </r>
       <r>   -0.9284    0.0000 </r>
       <r>   -0.8818    0.0000 </r>
       <r>   -0.8669    0.0000 </r>
       <r>   -0.5391    0.0000 </r>
       <r>   -0.2605    0.0000 </r>
       <r>   -0.2096    0.0000 </r>
       <r>    0.2457    0.0000 </r>
       <r>    0.2595    0.0000 </r>
       <r>    0.2614    0.0000 </r>
       <r>    0.6000    0.0000 </r>
       <r>    0.7937    0.0000 </r>
       <r>    0.9464    0.0000 </r>
       <r>    0.9733    0.0000 </r>
       <r>    1.0625    0.0000 </r>
       <r>    1.7340    0.0000 </r>
       <r>    1.7410    0.0000 </r>
       <r>    1.7671    0.0000 </r>
       <r>    1.8258    0.0000 </r>
       <r>    2.1159    0.0000 </r>
       <r>    2.1231    0.0000 </r>
       <r>    2.1312    0.0000 </r>
       <r>    2.2454    0.0000 </r>
       <r>    2.2476    0.0000 </r>
       <r>    2.3611    0.0000 </r>
       <r>    2.9977    0.0000 </r>
       <r>    3.0092    0.0000 </r>
       <r>    3.0400    0.0000 </r>
      </set>
     </set>
    </set>
   </array>
  </eigenvalues>
  <separator name="orbital magnetization" >
   <v name="MAGDIPOLOUT">      0.00000000      0.00000000      0.00000000</v>
  </separator>
  <dos>
   <i name="efermi">     -3.01701237 </i>
   <total>
    <array>
     <dimension dim="1">gridpoints</dimension>
     <dimension dim="2">spin</dimension>
     <field>energy</field>
     <field>total</field>
     <field>integrated</field>
     <set>
      <set comment="spin 1">
       <r>   -33.5343     0.0000     0.0000 </r>
       <r>   -33.4027     0.0000     0.0000 </r>
       <r>   -33.2710     0.0000     0.0000 </r>
       <r>   -33.1393     0.0000     0.0000 </r>
       <r>   -33.0077     0.0000     0.0000 </r>
       <r>   -32.8760     0.0000     0.0000 </r>
       <r>   -32.7444     0.0000     0.0000 </r>
       <r>   -32.6127     0.0000     0.0000 </r>
       <r>   -32.4810     0.0000     0.0000 </r>
       <r>   -32.3494     0.0000     0.0000 </r>
       <r>   -32.2177     0.0000     0.0000 </r>
       <r>   -32.0860     0.0000     0.0000 </r>
       <r>   -31.9544     0.0000     0.0000 </r>
       <r>   -31.8227     0.1347     0.0177 </r>
       <r>   -31.6911    13.7182     1.8239 </r>
       <r>   -31.5594     1.3375     2.0000 </r>
       <r>   -31.4277     0.0000     2.0000 </r>
       <r>   -31.2961     0.0000     2.0000 </r>
       <r>   -31.1644     0.0000     2.0000 </r>
       <r>   -31.0328     0.0000     2.0000 </r>
       <r>   -30.9011     0.0000     2.0000 </r>
       <r>   -30.7694     0.0000     2.0000 </r>
       <r>   -30.6378     0.0000     2.0000 </r>
       <r>   -30.5061     0.0000     2.0000 </r>
       <r>   -30.3744     0.0000     2.0000 </r>
       <r>   -30.2428     0.0000     2.0000 </r>
       <r>   -30.1111     0.0000     2.0000 </r>
       <r>   -29.9795     0.0000     2.0000 </r>
       <r>   -29.8478     0.0000     2.0000 </r>
       <r>   -29.7161     0.0000     2.0000 </r>
       <r>   -29.5845     0.0000     2.0000 </r>
       <r>   -29.4528     0.0000     2.0000 </r>
       <r>   -29.3211     0.0000     2.0000 </r>
       <r>   -29.1895     0.0000     2.0000 </r>
       <r>   -29.0578     0.0000     2.0000 </r>
       <r>   -28.9262     0.0000     2.0000 </r>
       <r>   -28.7945     0.0000     2.0000 </r>
       <r>   -28.6628     0.0000     2.0000 </r>
       <r>   -28.5312     0.0000     2.0000 </r>
       <r>   -28.3995     0.0000     2.0000 </r>
       <r>   -28.2679     0.0000     2.0000 </r>
       <r>   -28.1362     0.0000     2.0000 </r>
       <r>   -28.0045     0.0000     2.0000 </r>
       <r>   -27.8729     0.0000     2.0000 </r>
       <r>   -27.7412     0.0000     2.0000 </r>
       <r>   -27.6095     0.0000     2.0000 </r>
       <r>   -27.4779     0.0000     2.0000 </r>
       <r>   -27.3462     0.0000     2.0000 </r>
       <r>   -27.2146     0.0000     2.0000 </r>
       <r>   -27.0829     0.0000     2.0000 </r>
       <r>   -26.9512     0.0000     2.0000 </r>
       <r>   -26.8196     0.0000     2.0000 </r>
       <r>   -26.6879     0.0000     2.0000 </r>
       <r>   -26.5563     0.0000     2.0000 </r>
       <r>   -26.4246     0.0000     2.0000 </r>
       <r>   -26.2929     0.0000     2.0000 </r>
       <r>   -26.1613     0.0000     2.0000 </r>
       <r>   -26.0296     0.0000     2.0000 </r>
       <r>   -25.8979     0.0000     2.0000 </r>
       <r>   -25.7663     0.0000     2.0000 </r>
       <r>   -25.6346     0.0000     2.0000 </r>
       <r>   -25.5030     0.0000     2.0000 </r>
       <r>   -25.3713     0.0000     2.0000 </r>
       <r>   -25.2396     0.0000     2.0000 </r>
       <r>   -25.1080     0.0000     2.0000 </r>
       <r>   -24.9763     0.0000     2.0000 </r>
       <r>   -24.8447     0.0000     2.0000 </r>
       <r>   -24.7130     0.0000     2.0000 </r>
       <r>   -24.5813     0.0000     2.0000 </r>
       <r>   -24.4497     0.0000     2.0000 </r>
       <r>   -24.3180     0.0000     2.0000 </r>
       <r>   -24.1863     0.0000     2.0000 </r>
       <r>   -24.0547     0.0000     2.0000 </r>
       <r>   -23.9230     0.0000     2.0000 </r>
       <r>   -23.7914     0.0000     2.0000 </r>
       <r>   -23.6597     0.0000     2.0000 </r>
       <r>   -23.5280     0.0000     2.0000 </r>
       <r>   -23.3964     0.0000     2.0000 </r>
       <r>   -23.2647     0.0000     2.0000 </r>
       <r>   -23.1330     0.0000     2.0000 </r>
       <r>   -23.0014     0.0000     2.0000 </r>
       <r>   -22.8697     0.0000     2.0000 </r>
       <r>   -22.7381     0.0000     2.0000 </r>
       <r>   -22.6064     0.0000     2.0000 </r>
       <r>   -22.4747     0.0000     2.0000 </r>
       <r>   -22.3431     0.0367     2.0048 </r>
       <r>   -22.2114     4.3048     2.5716 </r>
       <r>   -22.0798     9.2963     3.7956 </r>
       <r>   -21.9481     4.9042     4.4413 </r>
       <r>   -21.8164    10.6174     5.8392 </r>
       <r>   -21.6848     5.4703     6.5594 </r>
       <r>   -21.5531     7.8434     7.5921 </r>
       <r>   -21.4214    12.5333     9.2422 </r>
       <r>   -21.2898     5.7491     9.9992 </r>
       <r>   -21.1581     3.5765    10.4701 </r>
       <r>   -21.0265     9.1573    11.6757 </r>
       <r>   -20.8948    10.4299    13.0490 </r>
       <r>   -20.7631    10.4064    14.4191 </r>
       <r>   -20.6315     8.5945    15.5506 </r>
       <r>   -20.4998     0.1845    15.5749 </r>
       <r>   -20.3682    12.9125    17.2750 </r>
       <r>   -20.2365     4.1415    17.8203 </r>
       <r>   -20.1048    18.5120    20.2576 </r>
       <r>   -19.9732     1.4285    20.4457 </r>
       <r>   -19.8415     3.3866    20.8916 </r>
       <r>   -19.7098    13.6250    22.6855 </r>
       <r>   -19.5782     8.7083    23.8320 </r>
       <r>   -19.4465     6.3281    24.6652 </r>
       <r>   -19.3149     6.7745    25.5571 </r>
       <r>   -19.1832    14.0020    27.4007 </r>
       <r>   -19.0515     7.3242    28.3650 </r>
       <r>   -18.9199     4.9895    29.0219 </r>
       <r>   -18.7882     5.3388    29.7248 </r>
       <r>   -18.6565     4.8243    30.3600 </r>
       <r>   -18.5249    14.1629    32.2247 </r>
       <r>   -18.3932    11.2622    33.7075 </r>
       <r>   -18.2616     8.8887    34.8778 </r>
       <r>   -18.1299     4.3991    35.4570 </r>
       <r>   -17.9982    15.6852    37.5221 </r>
       <r>   -17.8666     4.7980    38.1539 </r>
       <r>   -17.7349     3.8013    38.6543 </r>
       <r>   -17.6033     5.5351    39.3831 </r>
       <r>   -17.4716    15.7186    41.4526 </r>
       <r>   -17.3399     4.2089    42.0068 </r>
       <r>   -17.2083    21.5719    44.8470 </r>
       <r>   -17.0766     6.8815    45.7530 </r>
       <r>   -16.9449     3.5581    46.2215 </r>
       <r>   -16.8133     8.8321    47.3843 </r>
       <r>   -16.6816     3.7954    47.8840 </r>
       <r>   -16.5500     9.1810    49.0928 </r>
       <r>   -16.4183     8.8069    50.2523 </r>
       <r>   -16.2866     3.0129    50.6490 </r>
       <r>   -16.1550     9.0939    51.8463 </r>
       <r>   -16.0233     5.7925    52.6090 </r>
       <r>   -15.8917    13.2366    54.3517 </r>
       <r>   -15.7600    12.1315    55.9490 </r>
       <r>   -15.6283     1.9575    56.2067 </r>
       <r>   -15.4967     4.1915    56.7586 </r>
       <r>   -15.3650     2.9574    57.1479 </r>
       <r>   -15.2333    10.0222    58.4675 </r>
       <r>   -15.1017    21.8984    61.3507 </r>
       <r>   -14.9700     4.9944    62.0083 </r>
       <r>   -14.8384    11.3031    63.4964 </r>
       <r>   -14.7067    10.6798    64.9025 </r>
       <r>   -14.5750     6.4428    65.7508 </r>
       <r>   -14.4434    15.0388    67.7308 </r>
       <r>   -14.3117     5.4196    68.4444 </r>
       <r>   -14.1801     0.9261    68.5663 </r>
       <r>   -14.0484     4.1762    69.1162 </r>
       <r>   -13.9167     9.4808    70.3644 </r>
       <r>   -13.7851    16.7731    72.5728 </r>
       <r>   -13.6534    18.3586    74.9899 </r>
       <r>   -13.5217     1.6500    75.2072 </r>
       <r>   -13.3901     2.6404    75.5548 </r>
       <r>   -13.2584     0.3801    75.6049 </r>
       <r>   -13.1268    11.0894    77.0649 </r>
       <r>   -12.9951    13.7108    78.8701 </r>
       <r>   -12.8634    20.5613    81.5773 </r>
       <r>   -12.7318     1.5232    81.7778 </r>
       <r>   -12.6001     4.2246    82.3340 </r>
       <r>   -12.4684    17.9417    84.6963 </r>
       <r>   -12.3368    10.9295    86.1353 </r>
       <r>   -12.2051     3.7772    86.6326 </r>
       <r>   -12.0735     2.7320    86.9923 </r>
       <r>   -11.9418    12.5698    88.6472 </r>
       <r>   -11.8101     3.4037    89.0954 </r>
       <r>   -11.6785    15.3899    91.1216 </r>
       <r>   -11.5468    18.0981    93.5045 </r>
       <r>   -11.4152    13.6816    95.3058 </r>
       <r>   -11.2835     8.4390    96.4169 </r>
       <r>   -11.1518     5.5158    97.1431 </r>
       <r>   -11.0202     8.2045    98.2233 </r>
       <r>   -10.8885    12.2633    99.8379 </r>
       <r>   -10.7568    17.5567   102.1495 </r>
       <r>   -10.6252     1.7850   102.3845 </r>
       <r>   -10.4935    20.3980   105.0701 </r>
       <r>   -10.3619     4.2355   105.6278 </r>
       <r>   -10.2302    23.6224   108.7379 </r>
       <r>   -10.0985    26.0233   112.1642 </r>
       <r>    -9.9669    18.8065   114.6403 </r>
       <r>    -9.8352    14.0023   116.4839 </r>
       <r>    -9.7036    17.7301   118.8182 </r>
       <r>    -9.5719    26.9720   122.3694 </r>
       <r>    -9.4402    21.4272   125.1906 </r>
       <r>    -9.3086    27.0931   128.7577 </r>
       <r>    -9.1769    23.5449   131.8576 </r>
       <r>    -9.0452    28.6585   135.6309 </r>
       <r>    -8.9136    19.7568   138.2321 </r>
       <r>    -8.7819    18.6711   140.6904 </r>
       <r>    -8.6503    22.3126   143.6281 </r>
       <r>    -8.5186    17.9243   145.9880 </r>
       <r>    -8.3869    16.0756   148.1045 </r>
       <r>    -8.2553    16.0603   150.2191 </r>
       <r>    -8.1236    15.0687   152.2030 </r>
       <r>    -7.9919    29.0587   156.0290 </r>
       <r>    -7.8603    16.2988   158.1749 </r>
       <r>    -7.7286    17.0583   160.4208 </r>
       <r>    -7.5970     7.8234   161.4509 </r>
       <r>    -7.4653     2.4995   161.7800 </r>
       <r>    -7.3336    15.7641   163.8555 </r>
       <r>    -7.2020    32.7289   168.1646 </r>
       <r>    -7.0703    17.0819   170.4137 </r>
       <r>    -6.9387     3.9960   170.9398 </r>
       <r>    -6.8070    19.6256   173.5237 </r>
       <r>    -6.6753    12.1521   175.1237 </r>
       <r>    -6.5437    16.3209   177.2725 </r>
       <r>    -6.4120     7.2287   178.2243 </r>
       <r>    -6.2803    12.2710   179.8399 </r>
       <r>    -6.1487    15.2955   181.8537 </r>
       <r>    -6.0170    14.0818   183.7078 </r>
       <r>    -5.8854    19.4067   186.2629 </r>
       <r>    -5.7537     8.0909   187.3282 </r>
       <r>    -5.6220    13.7949   189.1444 </r>
       <r>    -5.4904     3.6955   189.6310 </r>
       <r>    -5.3587     7.7656   190.6534 </r>
       <r>    -5.2271     8.8488   191.8184 </r>
       <r>    -5.0954    11.0982   193.2797 </r>
       <r>    -4.9637    17.7255   195.6134 </r>
       <r>    -4.8321    16.4738   197.7824 </r>
       <r>    -4.7004     3.2070   198.2046 </r>
       <r>    -4.5687     0.1336   198.2222 </r>
       <r>    -4.4371     0.0000   198.2222 </r>
       <r>    -4.3054     2.4994   198.5513 </r>
       <r>    -4.1738    17.1136   200.8045 </r>
       <r>    -4.0421     5.7026   201.5553 </r>
       <r>    -3.9104     0.0018   201.5556 </r>
       <r>    -3.7788     0.3037   201.5955 </r>
       <r>    -3.6471     3.0430   201.9962 </r>
       <r>    -3.5155     0.2427   202.0281 </r>
       <r>    -3.3838     4.0241   202.5579 </r>
       <r>    -3.2521    12.2548   204.1714 </r>
       <r>    -3.1205    10.5150   205.5559 </r>
       <r>    -2.9888     3.4088   206.0047 </r>
       <r>    -2.8571     2.2402   206.2996 </r>
       <r>    -2.7255     9.4024   207.5376 </r>
       <r>    -2.5938     0.1367   207.5556 </r>
       <r>    -2.4622     0.0539   207.5627 </r>
       <r>    -2.3305     3.1322   207.9750 </r>
       <r>    -2.1988     2.6790   208.3278 </r>
       <r>    -2.0672     0.8862   208.4444 </r>
       <r>    -1.9355     0.0000   208.4444 </r>
       <r>    -1.8038     0.0000   208.4444 </r>
       <r>    -1.6722     0.1007   208.4577 </r>
       <r>    -1.5405     9.2418   209.6745 </r>
       <r>    -1.4089    11.7999   211.2281 </r>
       <r>    -1.2772     4.1748   211.7777 </r>
       <r>    -1.1455     0.0003   211.7778 </r>
       <r>    -1.0139     0.9392   211.9014 </r>
       <r>    -0.8822     9.8996   213.2048 </r>
       <r>    -0.7506    23.6245   216.3153 </r>
       <r>    -0.6189    18.6206   218.7669 </r>
       <r>    -0.4872     5.6510   219.5109 </r>
       <r>    -0.3556     0.3512   219.5572 </r>
       <r>    -0.2239     4.0508   220.0905 </r>
       <r>    -0.0922    11.3982   221.5912 </r>
       <r>     0.0394    10.6116   222.9883 </r>
       <r>     0.1711     1.0328   223.1243 </r>
       <r>     0.3027    15.2152   225.1276 </r>
       <r>     0.4344     8.2833   226.2182 </r>
       <r>     0.5661     3.2199   226.6421 </r>
       <r>     0.6977     9.9170   227.9478 </r>
       <r>     0.8294    17.8839   230.3024 </r>
       <r>     0.9610     6.2325   231.1230 </r>
       <r>     1.0927    10.4449   232.4982 </r>
       <r>     1.2244    15.6995   234.5652 </r>
       <r>     1.3560     7.7851   235.5902 </r>
       <r>     1.4877    14.8339   237.5433 </r>
       <r>     1.6194    22.8427   240.5508 </r>
       <r>     1.7510    15.3941   242.5776 </r>
       <r>     1.8827    27.8893   246.2496 </r>
       <r>     2.0143     8.7406   247.4004 </r>
       <r>     2.1460    15.2353   249.4063 </r>
       <r>     2.2777    25.8923   252.8153 </r>
       <r>     2.4093    29.2651   256.6684 </r>
       <r>     2.5410     8.5018   257.7878 </r>
       <r>     2.6727     6.1984   258.6039 </r>
       <r>     2.8043     8.4528   259.7168 </r>
       <r>     2.9360     5.7171   260.4695 </r>
       <r>     3.0676     8.9582   261.6489 </r>
       <r>     3.1993     2.7010   262.0046 </r>
       <r>     3.3310     4.9790   262.6601 </r>
       <r>     3.4626     0.0503   262.6667 </r>
       <r>     3.5943     2.6116   263.0106 </r>
       <r>     3.7259     4.1363   263.5552 </r>
       <r>     3.8576     0.0030   263.5556 </r>
       <r>     3.9893     0.0000   263.5556 </r>
       <r>     4.1209     0.2965   263.5946 </r>
       <r>     4.2526     3.0491   263.9960 </r>
       <r>     4.3843     0.0300   264.0000 </r>
       <r>     4.5159     0.0000   264.0000 </r>
       <r>     4.6476     0.0000   264.0000 </r>
       <r>     4.7792     0.0000   264.0000 </r>
       <r>     4.9109     0.0000   264.0000 </r>
       <r>     5.0426     0.0000   264.0000 </r>
       <r>     5.1742     0.0000   264.0000 </r>
       <r>     5.3059     0.0000   264.0000 </r>
       <r>     5.4375     0.0000   264.0000 </r>
       <r>     5.5692     0.0000   264.0000 </r>
       <r>     5.7009     0.0000   264.0000 </r>
       <r>     5.8325     0.0000   264.0000 </r>
       <r>     5.9642     0.0000   264.0000 </r>
      </set>
     </set>
    </array>
   </total>
  </dos>
 </calculation>
 <structure name="finalpos" >
  <crystal>
   <varray name="basis" >
    <v>      12.30000019       0.00000000       0.00000000 </v>
    <v>       6.15000080      10.65211222       0.00000000 </v>
    <v>       0.00000000       0.00000000      20.00000000 </v>
   </varray>
   <i name="volume">   2620.41964732 </i>
   <varray name="rec_basis" >
    <v>       0.08130081      -0.04693905       0.00000000 </v>
    <v>       0.00000000       0.09387809       0.00000000 </v>
    <v>       0.00000000       0.00000000       0.05000000 </v>
   </varray>
  </crystal>
  <varray name="positions" >
   <v>       0.00000000       0.00000000       0.41799748 </v>
   <v>       0.20000000       0.00000000       0.41799748 </v>
   <v>       0.40000000       0.00000000       0.41799748 </v>
   <v>       0.60000000       0.00000000       0.41799748 </v>
   <v>       0.80000000       0.00000000       0.41799748 </v>
   <v>       0.00000000       0.20000000       0.41799748 </v>
   <v>       0.20000000       0.20000000       0.41799748 </v>
   <v>       0.40000000       0.20000000       0.41799748 </v>
   <v>       0.60000000       0.20000000       0.41799748 </v>
   <v>       0.80000000       0.20000000       0.41799748 </v>
   <v>       0.00000000       0.40000000       0.41799748 </v>
   <v>       0.20000000       0.40000000       0.41799748 </v>
   <v>       0.40000000       0.40000000       0.41799748 </v>
   <v>       0.60000000       0.40000000       0.41799748 </v>
   <v>       0.80000000       0.40000000       0.41799748 </v>
   <v>       0.00000000       0.60000000       0.41799748 </v>
   <v>       0.20000000       0.60000000       0.41799748 </v>
   <v>       0.40000000       0.60000000       0.41799748 </v>
   <v>       0.60000000       0.60000000       0.41799748 </v>
   <v>       0.80000000       0.60000000       0.41799748 </v>
   <v>       0.00000000       0.80000000       0.41799748 </v>
   <v>       0.20000000       0.80000000       0.41799748 </v>
   <v>       0.40000000       0.80000000       0.41799748 </v>
   <v>       0.60000000       0.80000000       0.41799748 </v>
   <v>       0.80000000       0.80000000       0.41799748 </v>
   <v>       0.06666667       0.06666660       0.41800609 </v>
   <v>       0.26666667       0.06666660       0.41800609 </v>
   <v>       0.46666667       0.06666660       0.41800609 </v>
   <v>       0.66666667       0.06666660       0.41800609 </v>
   <v>       0.86666667       0.06666660       0.41800609 </v>
   <v>       0.06666667       0.26666660       0.41800609 </v>
   <v>       0.26585366       0.26666660       0.41800609 </v>
   <v>       0.46666667       0.26666660       0.41800609 </v>
   <v>       0.66666667       0.26666660       0.41800609 </v>
   <v>       0.86666667       0.26666660       0.41800609 </v>
   <v>       0.06666667       0.46666660       0.41800609 </v>
   <v>       0.26666667       0.46666660       0.41800609 </v>
   <v>       0.46666667       0.46666660       0.41800609 </v>
   <v>       0.66666667       0.46666660       0.41800609 </v>
   <v>       0.86666667       0.46666660       0.41800609 </v>
   <v>       0.06666667       0.66666660       0.41800609 </v>
   <v>       0.26666667       0.66666660       0.41800609 </v>
   <v>       0.46666667       0.66666660       0.41800609 </v>
   <v>       0.66666667       0.66666660       0.41800609 </v>
   <v>       0.86666667       0.66666660       0.41800609 </v>
   <v>       0.06666667       0.86666660       0.41800609 </v>
   <v>       0.26666667       0.86666660       0.41800609 </v>
   <v>       0.46666667       0.86666660       0.41800609 </v>
   <v>       0.66666667       0.86666660       0.41800609 </v>
   <v>       0.86666667       0.86666660       0.41800609 </v>
   <v>       0.40000000       0.40000000       0.46800609 </v>
  </varray>
  <varray name="velocities" >
   <v>       0.00000000       0.00000000       0.00000000 </v>
   <v>       0.00000000       0.00000000       0.00000000 </v>
   <v>       0.00000000       0.00000000       0.00000000 </v>
   <v>       0.00000000       0.00000000       0.00000000 </v>
   <v>       0.00000000       0.00000000       0.00000000 </v>
   <v>       0.00000000       0.00000000       0.00000000 </v>
   <v>       0.00000000       0.00000000       0.00000000 </v>
   <v>       0.00000000       0.00000000       0.00000000 </v>
   <v>       0.00000000       0.00000000       0.00000000 </v>
   <v>       0.00000000       0.00000000       0.00000000 </v>
   <v>       0.00000000       0.00000000       0.00000000 </v>
   <v>       0.00000000       0.00000000       0.00000000 </v>
   <v>       0.00000000       0.00000000       0.00000000 </v>
   <v>       0.00000000       0.00000000       0.00000000 </v>
   <v>       0.00000000       0.00000000       0.00000000 </v>
   <v>       0.00000000       0.00000000       0.00000000 </v>
   <v>       0.00000000       0.00000000       0.00000000 </v>
   <v>       0.00000000       0.00000000       0.00000000 </v>
   <v>       0.00000000       0.00000000       0.00000000 </v>
   <v>       0.00000000       0.00000000       0.00000000 </v>
   <v>       0.00000000       0.00000000       0.00000000 </v>
   <v>       0.00000000       0.00000000       0.00000000 </v>
   <v>       0.00000000       0.00000000       0.00000000 </v>
   <v>       0.00000000       0.00000000       0.00000000 </v>
   <v>       0.00000000       0.00000000       0.00000000 </v>
   <v>       0.00000000       0.00000000       0.00000000 </v>
   <v>       0.00000000       0.00000000       0.00000000 </v>
   <v>       0.00000000       0.00000000       0.00000000 </v>
   <v>       0.00000000       0.00000000       0.00000000 </v>
   <v>       0.00000000       0.00000000       0.00000000 </v>
   <v>       0.00000000       0.00000000       0.00000000 </v>
   <v>       0.00000000       0.00000000       0.00000000 </v>
   <v>       0.00000000       0.00000000       0.00000000 </v>
   <v>       0.00000000       0.00000000       0.00000000 </v>
   <v>       0.00000000       0.00000000       0.00000000 </v>
   <v>       0.00000000       0.00000000       0.00000000 </v>
   <v>       0.00000000       0.00000000       0.00000000 </v>
   <v>       0.00000000       0.00000000       0.00000000 </v>
   <v>       0.00000000       0.00000000       0.00000000 </v>
   <v>       0.00000000       0.00000000       0.00000000 </v>
   <v>       0.00000000       0.00000000       0.00000000 </v>
   <v>       0.00000000       0.00000000       0.00000000 </v>
   <v>       0.00000000       0.00000000       0.00000000 </v>
   <v>       0.00000000       0.00000000       0.00000000 </v>
   <v>       0.00000000       0.00000000       0.00000000 </v>
   <v>       0.00000000       0.00000000       0.00000000 </v>
   <v>       0.00000000       0.00000000       0.00000000 </v>
   <v>       0.00000000       0.00000000       0.00000000 </v>
   <v>       0.00000000       0.00000000       0.00000000 </v>
   <v>       0.00000000       0.00000000       0.00000000 </v>
   <v>       0.00000000       0.00000000       0.00000000 </v>
  </varray>
 </structure>
</modeling>
