  51  51   0   0
  0.5138078E+02  0.1230000E-08  0.1230000E-08  0.2000000E-08  0.5000000E-15
  1.000000000000000E-004
  CAR 
                                         
      5.97818194    -33.53752680  301     -3.01699858      1.00000000
    -33.538  0.0000E+00  0.0000E+00
    -33.406  0.0000E+00  0.0000E+00
    -33.274  0.0000E+00  0.0000E+00
    -33.142  0.0000E+00  0.0000E+00
    -33.011  0.0000E+00  0.0000E+00
    -32.879  0.0000E+00  0.0000E+00
    -32.747  0.0000E+00  0.0000E+00
    -32.615  0.0000E+00  0.0000E+00
    -32.484  0.0000E+00  0.0000E+00
    -32.352  0.0000E+00  0.0000E+00
    -32.220  0.0000E+00  0.0000E+00
    -32.089  0.0000E+00  0.0000E+00
    -31.957  0.8169E-08  0.1076E-08
    -31.825  0.1343E+00  0.1769E-01
    -31.693  0.1371E+02  0.1824E+01
    -31.562  0.1336E+01  0.2000E+01
    -31.430  0.2880E-05  0.2000E+01
    -31.298  0.0000E+00  0.2000E+01
    -31.167  0.0000E+00  0.2000E+01
    -31.035  0.0000E+00  0.2000E+01
    -30.903  0.0000E+00  0.2000E+01
    -30.771  0.0000E+00  0.2000E+01
    -30.640  0.0000E+00  0.2000E+01
    -30.508  0.0000E+00  0.2000E+01
    -30.376  0.0000E+00  0.2000E+01
    -30.245  0.0000E+00  0.2000E+01
    -30.113  0.0000E+00  0.2000E+01
    -29.981  0.0000E+00  0.2000E+01
    -29.849  0.0000E+00  0.2000E+01
    -29.718  0.0000E+00  0.2000E+01
    -29.586  0.0000E+00  0.2000E+01
    -29.454  0.0000E+00  0.2000E+01
    -29.323  0.0000E+00  0.2000E+01
    -29.191  0.0000E+00  0.2000E+01
    -29.059  0.0000E+00  0.2000E+01
    -28.927  0.0000E+00  0.2000E+01
    -28.796  0.0000E+00  0.2000E+01
    -28.664  0.0000E+00  0.2000E+01
    -28.532  0.0000E+00  0.2000E+01
    -28.400  0.0000E+00  0.2000E+01
    -28.269  0.0000E+00  0.2000E+01
    -28.137  0.0000E+00  0.2000E+01
    -28.005  0.0000E+00  0.2000E+01
    -27.874  0.0000E+00  0.2000E+01
    -27.742  0.0000E+00  0.2000E+01
    -27.610  0.0000E+00  0.2000E+01
    -27.478  0.0000E+00  0.2000E+01
    -27.347  0.0000E+00  0.2000E+01
    -27.215  0.0000E+00  0.2000E+01
    -27.083  0.0000E+00  0.2000E+01
    -26.952  0.0000E+00  0.2000E+01
    -26.820  0.0000E+00  0.2000E+01
    -26.688  0.0000E+00  0.2000E+01
    -26.556  0.0000E+00  0.2000E+01
    -26.425  0.0000E+00  0.2000E+01
    -26.293  0.0000E+00  0.2000E+01
    -26.161  0.0000E+00  0.2000E+01
    -26.030  0.0000E+00  0.2000E+01
    -25.898  0.0000E+00  0.2000E+01
    -25.766  0.0000E+00  0.2000E+01
    -25.634  0.0000E+00  0.2000E+01
    -25.503  0.0000E+00  0.2000E+01
    -25.371  0.0000E+00  0.2000E+01
    -25.239  0.0000E+00  0.2000E+01
    -25.108  0.0000E+00  0.2000E+01
    -24.976  0.0000E+00  0.2000E+01
    -24.844  0.0000E+00  0.2000E+01
    -24.712  0.0000E+00  0.2000E+01
    -24.581  0.0000E+00  0.2000E+01
    -24.449  0.0000E+00  0.2000E+01
    -24.317  0.0000E+00  0.2000E+01
    -24.185  0.0000E+00  0.2000E+01
    -24.054  0.0000E+00  0.2000E+01
    -23.922  0.0000E+00  0.2000E+01
    -23.790  0.0000E+00  0.2000E+01
    -23.659  0.0000E+00  0.2000E+01
    -23.527  0.0000E+00  0.2000E+01
    -23.395  0.0000E+00  0.2000E+01
    -23.263  0.0000E+00  0.2000E+01
    -23.132  0.0000E+00  0.2000E+01
    -23.000  0.0000E+00  0.2000E+01
    -22.868  0.0000E+00  0.2000E+01
    -22.737  0.0000E+00  0.2000E+01
    -22.605  0.0000E+00  0.2000E+01
    -22.473  0.9439E-08  0.2000E+01
    -22.341  0.3975E-01  0.2005E+01
    -22.210  0.4416E+01  0.2587E+01
    -22.078  0.9210E+01  0.3800E+01
    -21.946  0.4904E+01  0.4446E+01
    -21.815  0.1072E+02  0.5858E+01
    -21.683  0.5532E+01  0.6586E+01
    -21.551  0.7679E+01  0.7598E+01
    -21.419  0.1276E+02  0.9278E+01
    -21.288  0.5477E+01  0.9999E+01
    -21.156  0.3785E+01  0.1050E+02
    -21.024  0.9232E+01  0.1171E+02
    -20.893  0.1081E+02  0.1314E+02
    -20.761  0.9996E+01  0.1445E+02
    -20.629  0.8335E+01  0.1555E+02
    -20.497  0.2052E+00  0.1558E+02
    -20.366  0.1317E+02  0.1731E+02
    -20.234  0.3921E+01  0.1783E+02
    -20.102  0.1861E+02  0.2028E+02
    -19.970  0.1247E+01  0.2045E+02
    -19.839  0.3621E+01  0.2092E+02
    -19.707  0.1395E+02  0.2276E+02
    -19.575  0.8457E+01  0.2387E+02
    -19.444  0.6011E+01  0.2467E+02
    -19.312  0.6955E+01  0.2558E+02
    -19.180  0.1398E+02  0.2742E+02
    -19.048  0.7578E+01  0.2842E+02
    -18.917  0.4685E+01  0.2904E+02
    -18.785  0.5214E+01  0.2972E+02
    -18.653  0.5286E+01  0.3042E+02
    -18.522  0.1382E+02  0.3224E+02
    -18.390  0.1140E+02  0.3374E+02
    -18.258  0.8629E+01  0.3488E+02
    -18.126  0.4949E+01  0.3553E+02
    -17.995  0.1521E+02  0.3754E+02
    -17.863  0.4798E+01  0.3817E+02
    -17.731  0.3710E+01  0.3866E+02
    -17.600  0.5980E+01  0.3944E+02
    -17.468  0.1573E+02  0.4152E+02
    -17.336  0.4138E+01  0.4206E+02
    -17.204  0.2133E+02  0.4487E+02
    -17.073  0.6806E+01  0.4577E+02
    -16.941  0.3470E+01  0.4623E+02
    -16.809  0.8939E+01  0.4740E+02
    -16.677  0.4181E+01  0.4795E+02
    -16.546  0.8765E+01  0.4911E+02
    -16.414  0.8893E+01  0.5028E+02
    -16.282  0.3044E+01  0.5068E+02
    -16.151  0.9354E+01  0.5191E+02
    -16.019  0.5888E+01  0.5269E+02
    -15.887  0.1299E+02  0.5440E+02
    -15.755  0.1189E+02  0.5596E+02
    -15.624  0.2160E+01  0.5625E+02
    -15.492  0.4246E+01  0.5681E+02
    -15.360  0.2704E+01  0.5716E+02
    -15.229  0.1023E+02  0.5851E+02
    -15.097  0.2212E+02  0.6143E+02
    -14.965  0.4658E+01  0.6204E+02
    -14.833  0.1152E+02  0.6356E+02
    -14.702  0.1035E+02  0.6492E+02
    -14.570  0.6382E+01  0.6576E+02
    -14.438  0.1598E+02  0.6787E+02
    -14.307  0.4398E+01  0.6844E+02
    -14.175  0.1127E+01  0.6859E+02
    -14.043  0.3989E+01  0.6912E+02
    -13.911  0.1025E+02  0.7047E+02
    -13.780  0.1702E+02  0.7271E+02
    -13.648  0.1746E+02  0.7501E+02
    -13.516  0.1688E+01  0.7523E+02
    -13.385  0.2443E+01  0.7556E+02
    -13.253  0.5651E+00  0.7563E+02
    -13.121  0.1132E+02  0.7712E+02
    -12.989  0.1389E+02  0.7895E+02
    -12.858  0.2039E+02  0.8164E+02
    -12.726  0.1081E+01  0.8178E+02
    -12.594  0.5148E+01  0.8246E+02
    -12.462  0.1739E+02  0.8475E+02
    -12.331  0.1079E+02  0.8617E+02
    -12.199  0.3588E+01  0.8664E+02
    -12.067  0.3347E+01  0.8708E+02
    -11.936  0.1196E+02  0.8866E+02
    -11.804  0.3805E+01  0.8916E+02
    -11.672  0.1631E+02  0.9131E+02
    -11.540  0.1750E+02  0.9361E+02
    -11.409  0.1339E+02  0.9537E+02
    -11.277  0.8534E+01  0.9650E+02
    -11.145  0.5548E+01  0.9723E+02
    -11.014  0.7579E+01  0.9823E+02
    -10.882  0.1340E+02  0.9999E+02
    -10.750  0.1657E+02  0.1022E+03
    -10.618  0.2165E+01  0.1025E+03
    -10.487  0.2055E+02  0.1052E+03
    -10.355  0.3768E+01  0.1057E+03
    -10.223  0.2515E+02  0.1090E+03
    -10.092  0.2515E+02  0.1123E+03
     -9.960  0.1805E+02  0.1147E+03
     -9.828  0.1536E+02  0.1167E+03
     -9.696  0.1709E+02  0.1189E+03
     -9.565  0.2813E+02  0.1226E+03
     -9.433  0.2025E+02  0.1253E+03
     -9.301  0.2770E+02  0.1290E+03
     -9.170  0.2339E+02  0.1320E+03
     -9.038  0.2869E+02  0.1358E+03
     -8.906  0.2039E+02  0.1385E+03
     -8.774  0.1680E+02  0.1407E+03
     -8.643  0.2400E+02  0.1439E+03
     -8.511  0.1699E+02  0.1461E+03
     -8.379  0.1656E+02  0.1483E+03
     -8.247  0.1526E+02  0.1503E+03
     -8.116  0.1649E+02  0.1525E+03
     -7.984  0.2836E+02  0.1562E+03
     -7.852  0.1609E+02  0.1583E+03
     -7.721  0.1592E+02  0.1604E+03
     -7.589  0.8291E+01  0.1615E+03
     -7.457  0.1956E+01  0.1618E+03
     -7.325  0.1874E+02  0.1643E+03
     -7.194  0.3200E+02  0.1685E+03
     -7.062  0.1491E+02  0.1704E+03
     -6.930  0.4892E+01  0.1711E+03
     -6.799  0.1885E+02  0.1736E+03
     -6.667  0.1311E+02  0.1753E+03
     -6.535  0.1573E+02  0.1774E+03
     -6.403  0.7043E+01  0.1783E+03
     -6.272  0.1276E+02  0.1800E+03
     -6.140  0.1527E+02  0.1820E+03
     -6.008  0.1348E+02  0.1838E+03
     -5.877  0.2059E+02  0.1865E+03
     -5.745  0.7717E+01  0.1875E+03
     -5.613  0.1357E+02  0.1893E+03
     -5.481  0.3071E+01  0.1897E+03
     -5.350  0.8048E+01  0.1907E+03
     -5.218  0.8400E+01  0.1918E+03
     -5.086  0.1218E+02  0.1934E+03
     -4.954  0.1883E+02  0.1959E+03
     -4.823  0.1422E+02  0.1978E+03
     -4.691  0.3172E+01  0.1982E+03
     -4.559  0.6856E-01  0.1982E+03
     -4.428  0.5793E-04  0.1982E+03
     -4.296  0.3429E+01  0.1987E+03
     -4.164  0.1729E+02  0.2010E+03
     -4.032  0.4582E+01  0.2016E+03
     -3.901  0.6025E-03  0.2016E+03
     -3.769  0.4957E+00  0.2016E+03
     -3.637  0.2866E+01  0.2020E+03
     -3.506  0.3236E+00  0.2020E+03
     -3.374  0.4489E+01  0.2026E+03
     -3.242  0.1227E+02  0.2042E+03
     -3.110  0.1094E+02  0.2057E+03
     -2.979  0.2423E+01  0.2060E+03
     -2.847  0.2716E+01  0.2064E+03
     -2.715  0.8966E+01  0.2075E+03
     -2.584  0.6089E-01  0.2076E+03
     -2.452  0.1136E+00  0.2076E+03
     -2.320  0.3174E+01  0.2080E+03
     -2.188  0.2939E+01  0.2084E+03
     -2.057  0.5213E+00  0.2084E+03
     -1.925  0.3553E-05  0.2084E+03
     -1.793  0.5750E-07  0.2084E+03
     -1.662  0.2394E+00  0.2085E+03
     -1.530  0.9597E+01  0.2097E+03
     -1.398  0.1289E+02  0.2114E+03
     -1.266  0.2578E+01  0.2118E+03
     -1.135  0.1292E-03  0.2118E+03
     -1.003  0.1320E+01  0.2120E+03
     -0.871  0.1155E+02  0.2135E+03
     -0.739  0.2271E+02  0.2165E+03
     -0.608  0.1808E+02  0.2188E+03
     -0.476  0.5211E+01  0.2195E+03
     -0.344  0.2188E+00  0.2196E+03
     -0.213  0.4832E+01  0.2202E+03
     -0.081  0.1130E+02  0.2217E+03
      0.051  0.1029E+02  0.2230E+03
      0.183  0.7262E+00  0.2231E+03
      0.314  0.1679E+02  0.2253E+03
      0.446  0.7147E+01  0.2263E+03
      0.578  0.3240E+01  0.2267E+03
      0.709  0.1184E+02  0.2283E+03
      0.841  0.1611E+02  0.2304E+03
      0.973  0.6280E+01  0.2312E+03
      1.105  0.1130E+02  0.2327E+03
      1.236  0.1453E+02  0.2346E+03
      1.368  0.8762E+01  0.2358E+03
      1.500  0.1497E+02  0.2378E+03
      1.631  0.2304E+02  0.2408E+03
      1.763  0.1681E+02  0.2430E+03
      1.895  0.2614E+02  0.2464E+03
      2.027  0.8313E+01  0.2475E+03
      2.158  0.1708E+02  0.2498E+03
      2.290  0.2598E+02  0.2532E+03
      2.422  0.2819E+02  0.2569E+03
      2.553  0.6658E+01  0.2578E+03
      2.685  0.6605E+01  0.2587E+03
      2.817  0.9970E+01  0.2600E+03
      2.949  0.3887E+01  0.2605E+03
      3.080  0.9245E+01  0.2617E+03
      3.212  0.2901E+01  0.2621E+03
      3.344  0.4296E+01  0.2627E+03
      3.476  0.2048E-01  0.2627E+03
      3.607  0.3031E+01  0.2631E+03
      3.739  0.3713E+01  0.2636E+03
      3.871  0.2896E-02  0.2636E+03
      4.002  0.6357E-06  0.2636E+03
      4.134  0.2961E+00  0.2636E+03
      4.266  0.3048E+01  0.2640E+03
      4.398  0.2994E-01  0.2640E+03
      4.529  0.1830E-08  0.2640E+03
      4.661  0.0000E+00  0.2640E+03
      4.793  0.0000E+00  0.2640E+03
      4.924  0.0000E+00  0.2640E+03
      5.056  0.0000E+00  0.2640E+03
      5.188  0.0000E+00  0.2640E+03
      5.320  0.0000E+00  0.2640E+03
      5.451  0.0000E+00  0.2640E+03
      5.583  0.0000E+00  0.2640E+03
      5.715  0.0000E+00  0.2640E+03
      5.846  0.0000E+00  0.2640E+03
      5.978  0.0000E+00  0.2640E+03
