 running on   48 total cores
 distrk:  each k-point on   48 cores,    1 groups
 distr:  one band on    8 cores,    6 groups
 using from now: INCAR     
 vasp.5.4.4.18Apr17-6-g9f103f2a35 (build Aug 13 2022 23:40:43) complex          
  
 POSCAR found type information on POSCAR  C  O 
 POSCAR found :  2 types and      51 ions
 scaLAPACK will be used

 ----------------------------------------------------------------------------- 
|                                                                             |
|  ADVICE TO THIS USER RUNNING 'VASP/VAMP'   (HEAR YOUR MASTER'S VOICE ...):  |
|                                                                             |
|      You have a (more or less) 'large supercell' and for larger cells       |
|      it might be more efficient to use real space projection opertators     |
|      So try LREAL= Auto  in the INCAR   file.                               |
|      Mind:          For very  accurate calculation you might also keep the  |
|      reciprocal projection scheme          (i.e. LREAL=.FALSE.)             |
|                                                                             |
 ----------------------------------------------------------------------------- 

 LDA part: xc-table for Pade appr. of Perdew
 POSCAR found type information on POSCAR  C  O 
 POSCAR found :  2 types and      51 ions
 found WAVECAR, reading the header
  number of k-points has changed, file:     3 present:     5
  trying to continue reading WAVECAR, but it might fail
 POSCAR, INCAR and KPOINTS ok, starting setup
 FFT: planning ...
 reading WAVECAR
 the WAVECAR file was read successfully
 charge-density read from file: 1.00000000000000                        
 entering main loop
       N       E                     dE             d eps       ncg     rms          rms(c)
DAV:   1    -0.453293105158E+03   -0.45329E+03   -0.28411E+02  1356   0.216E+01    0.490E-01
RMM:   2    -0.454280909631E+03   -0.98780E+00   -0.99002E+00  1417   0.563E+00    0.201E-01
RMM:   3    -0.454333216438E+03   -0.52307E-01   -0.58524E-01  1575   0.109E+00    0.151E-01
RMM:   4    -0.454337101309E+03   -0.38849E-02   -0.40585E-02  1565   0.309E-01    0.153E-01
RMM:   5    -0.454337248914E+03   -0.14760E-03   -0.30169E-03  1532   0.820E-02    0.860E-02
RMM:   6    -0.454337252406E+03   -0.34921E-05   -0.52703E-04  1517   0.482E-02    0.989E-03
RMM:   7    -0.454337270373E+03   -0.17967E-04   -0.42893E-05  1176   0.151E-02    0.141E-02
RMM:   8    -0.454337273170E+03   -0.27973E-05   -0.93391E-06   937   0.771E-03
   1 F= -.45433727E+03 E0= -.45433721E+03  d E =-.118511E-03
