<?xml version="1.0" encoding="ISO-8859-1"?>
<modeling>
 <generator>
  <i name="program" type="string">vasp </i>
  <i name="version" type="string">5.4.4.18Apr17-6-g9f103f2a35  </i>
  <i name="subversion" type="string">(build Aug 13 2022 23:40:43) complex            parallel </i>
  <i name="platform" type="string">LinuxIFC </i>
  <i name="date" type="string">2024 11 10 </i>
  <i name="time" type="string">04:15:35 </i>
 </generator>
 <incar>
  <i type="int" name="ISTART">     1</i>
  <i type="string" name="PREC">accurate</i>
  <i type="string" name="ALGO"> F          N:DAV,fine,slow</i>
  <i type="logical" name="ADDGRID"> T  </i>
  <i type="int" name="ISPIN">     1</i>
  <i type="int" name="ICHARG">     1</i>
  <i type="int" name="NELM">   300</i>
  <i type="int" name="IBRION">    -1</i>
  <i name="EDIFF">      0.00001000</i>
  <i name="EDIFFG">     -0.00100000</i>
  <i type="int" name="NSW">     1</i>
  <i type="int" name="ISIF">     2</i>
  <i name="ENCUT">    400.00000000</i>
  <i type="logical" name="LREAL"> F  </i>
  <i type="int" name="ISMEAR">     0</i>
  <i name="SIGMA">      0.05000000</i>
  <i type="logical" name="LWAVE"> F  </i>
  <i type="logical" name="LCHARG"> F  </i>
  <v type="int" name="KPOINT_BSE">    -1     0     0     0</v>
  <i type="int" name="NELM">   300</i>
 </incar>
 <structure name="primitive_cell" >
  <crystal>
   <varray name="basis" >
    <v>      12.30000019       0.00000000       0.00000000 </v>
    <v>       6.15000080      10.65211222       0.00000000 </v>
    <v>       0.00000000       0.00000000      20.00000000 </v>
   </varray>
   <i name="volume">   2620.41964732 </i>
   <varray name="rec_basis" >
    <v>       0.08130081      -0.04693905       0.00000000 </v>
    <v>       0.00000000       0.09387809       0.00000000 </v>
    <v>       0.00000000       0.00000000       0.05000000 </v>
   </varray>
  </crystal>
  <varray name="positions" >
   <v>       0.00000000       0.00000000       0.41799748 </v>
   <v>       0.06666667       0.06666660       0.41800609 </v>
   <v>      -0.13333333       0.06666660       0.41800609 </v>
   <v>       0.06666667      -0.13333340       0.41800609 </v>
   <v>      -0.20000000       0.20000000       0.41799748 </v>
   <v>       0.20000000      -0.20000000       0.41799748 </v>
   <v>       0.20000000       0.00000000       0.41799748 </v>
   <v>      -0.20000000       0.00000000       0.41799748 </v>
   <v>       0.00000000       0.20000000       0.41799748 </v>
   <v>       0.00000000      -0.20000000       0.41799748 </v>
   <v>      -0.13333333       0.26666660       0.41800609 </v>
   <v>       0.26666667      -0.13333340       0.41800609 </v>
   <v>      -0.13333333      -0.13333340       0.41800609 </v>
   <v>       0.06666667       0.26666660       0.41800609 </v>
   <v>      -0.33333333       0.26666660       0.41800609 </v>
   <v>       0.26666667       0.06666660       0.41800609 </v>
   <v>      -0.33333333       0.06666660       0.41800609 </v>
   <v>       0.26666667      -0.33333340       0.41800609 </v>
   <v>       0.06666667      -0.33333340       0.41800609 </v>
   <v>      -0.40000000       0.20000000       0.41799748 </v>
   <v>       0.40000000      -0.20000000       0.41799748 </v>
   <v>      -0.20000000       0.40000000       0.41799748 </v>
   <v>       0.20000000      -0.40000000       0.41799748 </v>
   <v>       0.20000000       0.20000000       0.41799748 </v>
   <v>      -0.20000000      -0.20000000       0.41799748 </v>
   <v>      -0.40000000       0.40000000       0.41799748 </v>
   <v>       0.40000000      -0.40000000       0.41799748 </v>
   <v>       0.40000000       0.00000000       0.41799748 </v>
   <v>      -0.40000000       0.00000000       0.41799748 </v>
   <v>       0.00000000       0.40000000       0.41799748 </v>
   <v>       0.00000000      -0.40000000       0.41799748 </v>
   <v>      -0.13333333       0.46666660       0.41800609 </v>
   <v>      -0.33333333       0.46666660       0.41800609 </v>
   <v>       0.46666667      -0.13333340       0.41800609 </v>
   <v>       0.46666667      -0.33333340       0.41800609 </v>
   <v>      -0.33333333      -0.13333340       0.41800609 </v>
   <v>      -0.13333333      -0.33333340       0.41800609 </v>
   <v>       0.26666667       0.26666660       0.41800609 </v>
   <v>       0.46666667       0.26666660       0.41800609 </v>
   <v>       0.26666667       0.46666660       0.41800609 </v>
   <v>       0.06666667       0.46666660       0.41800609 </v>
   <v>       0.46666667       0.46666660       0.41800609 </v>
   <v>       0.46666667       0.06666660       0.41750609 </v>
   <v>       0.40000000       0.40000000       0.41799748 </v>
   <v>      -0.40000000      -0.40000000       0.41799748 </v>
   <v>       0.40000000       0.20000000       0.41799748 </v>
   <v>      -0.40000000      -0.20000000       0.41799748 </v>
   <v>       0.20000000       0.40000000       0.41799748 </v>
   <v>      -0.20000000      -0.40000000       0.41799748 </v>
   <v>       0.40000000       0.40000000       0.46800609 </v>
   <v>      -0.33333333      -0.33333340       0.41800609 </v>
  </varray>
 </structure>
 <varray name="primitive_index" >
  <v type="int" >        1 </v>
  <v type="int" >       26 </v>
  <v type="int" >       30 </v>
  <v type="int" >       46 </v>
  <v type="int" >       10 </v>
  <v type="int" >       22 </v>
  <v type="int" >        2 </v>
  <v type="int" >        5 </v>
  <v type="int" >        6 </v>
  <v type="int" >       21 </v>
  <v type="int" >       35 </v>
  <v type="int" >       47 </v>
  <v type="int" >       50 </v>
  <v type="int" >       31 </v>
  <v type="int" >       34 </v>
  <v type="int" >       27 </v>
  <v type="int" >       29 </v>
  <v type="int" >       42 </v>
  <v type="int" >       41 </v>
  <v type="int" >        9 </v>
  <v type="int" >       23 </v>
  <v type="int" >       15 </v>
  <v type="int" >       17 </v>
  <v type="int" >        7 </v>
  <v type="int" >       25 </v>
  <v type="int" >       14 </v>
  <v type="int" >       18 </v>
  <v type="int" >        3 </v>
  <v type="int" >        4 </v>
  <v type="int" >       11 </v>
  <v type="int" >       16 </v>
  <v type="int" >       40 </v>
  <v type="int" >       39 </v>
  <v type="int" >       48 </v>
  <v type="int" >       43 </v>
  <v type="int" >       49 </v>
  <v type="int" >       45 </v>
  <v type="int" >       32 </v>
  <v type="int" >       33 </v>
  <v type="int" >       37 </v>
  <v type="int" >       36 </v>
  <v type="int" >       38 </v>
  <v type="int" >       28 </v>
  <v type="int" >       13 </v>
  <v type="int" >       19 </v>
  <v type="int" >        8 </v>
  <v type="int" >       24 </v>
  <v type="int" >       12 </v>
  <v type="int" >       20 </v>
  <v type="int" >       51 </v>
  <v type="int" >       44 </v>
 </varray>
 <kpoints>
  <generation param="Gamma">
   <v type="int" name="divisions">       3        3        1 </v>
   <v name="usershift">      0.00000000       0.00000000       0.00000000 </v>
   <v name="genvec1">      0.33333333      -0.00000000       0.00000000 </v>
   <v name="genvec2">      0.00000000       0.33333333       0.00000000 </v>
   <v name="genvec3">      0.00000000       0.00000000       1.00000000 </v>
   <v name="shift">      0.00000000       0.00000000       0.00000000 </v>
  </generation>
  <varray name="kpointlist" >
   <v>       0.00000000       0.00000000       0.00000000 </v>
   <v>       0.33333333       0.00000000       0.00000000 </v>
   <v>       0.00000000       0.33333333       0.00000000 </v>
   <v>       0.33333333       0.33333333       0.00000000 </v>
   <v>      -0.33333333       0.33333333       0.00000000 </v>
  </varray>
  <varray name="weights" >
   <v>       0.11111111 </v>
   <v>       0.22222222 </v>
   <v>       0.22222222 </v>
   <v>       0.22222222 </v>
   <v>       0.22222222 </v>
  </varray>
 </kpoints>
 <parameters>
  <separator name="general" >
   <i type="string" name="SYSTEM"></i>
   <i type="logical" name="LCOMPAT"> F  </i>
  </separator>
  <separator name="electronic" >
   <i type="string" name="PREC">accura</i>
   <i name="ENMAX">    400.00000000</i>
   <i name="ENAUG">    644.87300000</i>
   <i name="EDIFF">      0.00001000</i>
   <i type="int" name="IALGO">    68</i>
   <i type="int" name="IWAVPR">    10</i>
   <i type="int" name="NBANDS">   132</i>
   <i name="NELECT">    206.00000000</i>
   <i type="int" name="TURBO">     0</i>
   <i type="int" name="IRESTART">     0</i>
   <i type="int" name="NREBOOT">     0</i>
   <i type="int" name="NMIN">     0</i>
   <i name="EREF">      0.00000000</i>
   <separator name="electronic smearing" >
    <i type="int" name="ISMEAR">     0</i>
    <i name="SIGMA">      0.05000000</i>
    <i name="KSPACING">      0.50000000</i>
    <i type="logical" name="KGAMMA"> T  </i>
   </separator>
   <separator name="electronic projectors" >
    <i type="logical" name="LREAL"> F  </i>
    <v name="ROPT">      0.00000000      0.00000000</v>
    <i type="int" name="LMAXPAW">  -100</i>
    <i type="int" name="LMAXMIX">     2</i>
    <i type="logical" name="NLSPLINE"> F  </i>
   </separator>
   <separator name="electronic startup" >
    <i type="int" name="ISTART">     1</i>
    <i type="int" name="ICHARG">     1</i>
    <i type="int" name="INIWAV">     1</i>
   </separator>
   <separator name="electronic spin" >
    <i type="int" name="ISPIN">     1</i>
    <i type="logical" name="LNONCOLLINEAR"> F  </i>
    <v name="MAGMOM">      1.00000000      1.00000000      1.00000000      1.00000000      1.00000000      1.00000000      1.00000000      1.00000000      1.00000000      1.00000000      1.00000000      1.00000000      1.00000000      1.00000000      1.00000000      1.00000000      1.00000000      1.00000000      1.00000000      1.00000000
      1.00000000      1.00000000      1.00000000      1.00000000      1.00000000      1.00000000      1.00000000      1.00000000      1.00000000      1.00000000      1.00000000      1.00000000      1.00000000      1.00000000      1.00000000      1.00000000      1.00000000      1.00000000      1.00000000      1.00000000
      1.00000000      1.00000000      1.00000000      1.00000000      1.00000000      1.00000000      1.00000000      1.00000000      1.00000000      1.00000000      1.00000000</v>
    <i name="NUPDOWN">     -1.00000000</i>
    <i type="logical" name="LSORBIT"> F  </i>
    <v name="SAXIS">      0.00000000      0.00000000      1.00000000</v>
    <i type="logical" name="LSPIRAL"> F  </i>
    <v name="QSPIRAL">      0.00000000      0.00000000      0.00000000</v>
    <i type="logical" name="LZEROZ"> F  </i>
   </separator>
   <separator name="electronic exchange-correlation" >
    <i type="logical" name="LASPH"> F  </i>
    <i type="logical" name="LMETAGGA"> F  </i>
   </separator>
   <separator name="electronic convergence" >
    <i type="int" name="NELM">   300</i>
    <i type="int" name="NELMDL">     0</i>
    <i type="int" name="NELMIN">     2</i>
    <i name="ENINI">    400.00000000</i>
    <separator name="electronic convergence detail" >
     <i type="logical" name="LDIAG"> T  </i>
     <i type="logical" name="LSUBROT"> F  </i>
     <i name="WEIMIN">      0.00000000</i>
     <i name="EBREAK">      0.00000002</i>
     <i name="DEPER">      0.30000000</i>
     <i type="int" name="NRMM">     4</i>
     <i name="TIME">      0.40000000</i>
    </separator>
   </separator>
   <separator name="electronic mixer" >
    <i name="AMIX">      0.40000000</i>
    <i name="BMIX">      1.00000000</i>
    <i name="AMIN">      0.10000000</i>
    <i name="AMIX_MAG">      1.60000000</i>
    <i name="BMIX_MAG">      1.00000000</i>
    <separator name="electronic mixer details" >
     <i type="int" name="IMIX">     4</i>
     <i type="logical" name="MIXFIRST"> F  </i>
     <i type="int" name="MAXMIX">   -45</i>
     <i name="WC">    100.00000000</i>
     <i type="int" name="INIMIX">     1</i>
     <i type="int" name="MIXPRE">     1</i>
     <i type="int" name="MREMOVE">     5</i>
    </separator>
   </separator>
   <separator name="electronic dipolcorrection" >
    <i type="logical" name="LDIPOL"> F  </i>
    <i type="logical" name="LMONO"> F  </i>
    <i type="int" name="IDIPOL">     0</i>
    <i name="EPSILON">      1.00000000</i>
    <v name="DIPOL">   -100.00000000   -100.00000000   -100.00000000</v>
    <i name="EFIELD">      0.00000000</i>
   </separator>
  </separator>
  <separator name="grids" >
   <i type="int" name="NGX">    80</i>
   <i type="int" name="NGY">    80</i>
   <i type="int" name="NGZ">   140</i>
   <i type="int" name="NGXF">   160</i>
   <i type="int" name="NGYF">   160</i>
   <i type="int" name="NGZF">   280</i>
   <i type="logical" name="ADDGRID"> T  </i>
  </separator>
  <separator name="ionic" >
   <i type="int" name="NSW">     1</i>
   <i type="int" name="IBRION">    -1</i>
   <i type="int" name="MDALGO">     0</i>
   <i type="int" name="ISIF">     2</i>
   <i name="PSTRESS">      0.00000000</i>
   <i name="EDIFFG">     -0.00100000</i>
   <i type="int" name="NFREE">     0</i>
   <i name="POTIM">      0.50000000</i>
   <i name="SMASS">     -3.00000000</i>
   <i name="SCALEE">      1.00000000</i>
  </separator>
  <separator name="ionic md" >
   <i name="TEBEG">      0.00010000</i>
   <i name="TEEND">      0.00010000</i>
   <i type="int" name="NBLOCK">     1</i>
   <i type="int" name="KBLOCK">     1</i>
   <i type="int" name="NPACO">   256</i>
   <i name="APACO">     16.00000000</i>
  </separator>
  <separator name="symmetry" >
   <i type="int" name="ISYM">     2</i>
   <i name="SYMPREC">      0.00001000</i>
  </separator>
  <separator name="dos" >
   <i type="int" name="LORBIT">     0</i>
   <v name="RWIGS">     -1.00000000     -1.00000000</v>
   <i type="int" name="NEDOS">   301</i>
   <i name="EMIN">     10.00000000</i>
   <i name="EMAX">    -10.00000000</i>
   <i name="EFERMI">      0.00000000</i>
  </separator>
  <separator name="writing" >
   <i type="int" name="NWRITE">     2</i>
   <i type="logical" name="LWAVE"> F  </i>
   <i type="logical" name="LDOWNSAMPLE"> F  </i>
   <i type="logical" name="LCHARG"> F  </i>
   <i type="logical" name="LPARD"> F  </i>
   <i type="logical" name="LVTOT"> F  </i>
   <i type="logical" name="LVHAR"> F  </i>
   <i type="logical" name="LELF"> F  </i>
   <i type="logical" name="LOPTICS"> F  </i>
   <v name="STM">      0.00000000      0.00000000      0.00000000      0.00000000      0.00000000      0.00000000      0.00000000</v>
  </separator>
  <separator name="performance" >
   <i type="int" name="NPAR">     6</i>
   <i type="int" name="NSIM">     4</i>
   <i type="int" name="NBLK">    -1</i>
   <i type="logical" name="LPLANE"> T  </i>
   <i type="logical" name="LSCALAPACK"> T  </i>
   <i type="logical" name="LSCAAWARE"> F  </i>
   <i type="logical" name="LSCALU"> F  </i>
   <i type="logical" name="LASYNC"> F  </i>
   <i type="logical" name="LORBITALREAL"> F  </i>
  </separator>
  <separator name="miscellaneous" >
   <i type="int" name="IDIOT">     3</i>
   <i type="int" name="ISPECIAL">     0</i>
   <i type="logical" name="LMUSIC"> F  </i>
   <v name="POMASS">     12.01100000     16.00000000</v>
   <v name="DARWINR">      0.00000000      0.00000000</v>
   <v name="DARWINV">      1.00000000      1.00000000</v>
   <i type="logical" name="LCORR"> T  </i>
  </separator>
  <i type="logical" name="GGA_COMPAT"> T  </i>
  <i type="logical" name="LBERRY"> F  </i>
  <i type="int" name="ICORELEVEL">     0</i>
  <i type="logical" name="LDAU"> F  </i>
  <i type="int" name="I_CONSTRAINED_M">     0</i>
  <separator name="electronic exchange-correlation" >
   <i type="string" name="GGA">--</i>
   <i type="int" name="VOSKOWN">     0</i>
   <i type="logical" name="LHFCALC"> F  </i>
   <i type="string" name="PRECFOCK"></i>
   <i type="logical" name="LSYMGRAD"> F  </i>
   <i type="logical" name="LHFONE"> F  </i>
   <i type="logical" name="LRHFCALC"> F  </i>
   <i type="logical" name="LTHOMAS"> F  </i>
   <i type="logical" name="LMODELHF"> F  </i>
   <i name="ENCUT4O">     -1.00000000</i>
   <i type="int" name="EXXOEP">     0</i>
   <i type="int" name="FOURORBIT">     0</i>
   <i name="AEXX">      0.00000000</i>
   <i name="HFALPHA">      0.00000000</i>
   <i name="MCALPHA">      0.00000000</i>
   <i name="ALDAX">      1.00000000</i>
   <i name="AGGAX">      1.00000000</i>
   <i name="ALDAC">      1.00000000</i>
   <i name="AGGAC">      1.00000000</i>
   <i type="int" name="NKREDX">     1</i>
   <i type="int" name="NKREDY">     1</i>
   <i type="int" name="NKREDZ">     1</i>
   <i type="logical" name="SHIFTRED"> F  </i>
   <i type="logical" name="ODDONLY"> F  </i>
   <i type="logical" name="EVENONLY"> F  </i>
   <i type="int" name="LMAXFOCK">     0</i>
   <i type="int" name="NMAXFOCKAE">     0</i>
   <i type="logical" name="LFOCKAEDFT"> F  </i>
   <i name="HFSCREEN">      0.00000000</i>
   <i name="HFSCREENC">      0.00000000</i>
   <i type="int" name="NBANDSGWLOW">     0</i>
  </separator>
  <separator name="vdW DFT" >
   <i type="logical" name="LUSE_VDW"> F  </i>
   <i name="Zab_VDW">     -0.84910000</i>
   <i name="PARAM1">      0.12340000</i>
   <i name="PARAM2">      1.00000000</i>
   <i name="PARAM3">      0.00000000</i>
  </separator>
  <separator name="model GW" >
   <i type="int" name="MODEL_GW">     0</i>
   <i name="MODEL_EPS0">     30.82846644</i>
   <i name="MODEL_ALPHA">      1.00000000</i>
  </separator>
  <separator name="linear response parameters" >
   <i type="logical" name="LEPSILON"> F  </i>
   <i type="logical" name="LRPA"> F  </i>
   <i type="logical" name="LNABLA"> F  </i>
   <i type="logical" name="LVEL"> F  </i>
   <i type="int" name="KINTER">     0</i>
   <i name="CSHIFT">      0.10000000</i>
   <i name="OMEGAMAX">     -1.00000000</i>
   <i name="DEG_THRESHOLD">      0.00200000</i>
   <i name="RTIME">     -0.10000000</i>
   <i name="WPLASMAI">      0.00000000</i>
   <v name="DFIELD">      0.00000000      0.00000000      0.00000000</v>
   <v name="WPLASMA">      0.00000000      0.00000000      0.00000000      0.00000000      0.00000000      0.00000000      0.00000000      0.00000000      0.00000000</v>
  </separator>
  <separator name="orbital magnetization" >
   <i type="logical" name="NUCIND"> F  </i>
   <v name="MAGPOS">      0.00000000      0.00000000      0.00000000</v>
   <i type="logical" name="LNICSALL"> T  </i>
   <i type="logical" name="ORBITALMAG"> F  </i>
   <i type="logical" name="LMAGBLOCH"> F  </i>
   <i type="logical" name="LCHIMAG"> F  </i>
   <i type="logical" name="LGAUGE"> T  </i>
   <i type="int" name="MAGATOM">     0</i>
   <v name="MAGDIPOL">      0.00000000      0.00000000      0.00000000</v>
   <v name="AVECCONST">      0.00000000      0.00000000      0.00000000</v>
  </separator>
  <separator name="response functions" >
   <i type="logical" name="LADDER"> F  </i>
   <i type="logical" name="LRPAFORCE"> F  </i>
   <i type="logical" name="LFXC"> F  </i>
   <i type="logical" name="LHARTREE"> T  </i>
   <i type="int" name="IBSE">     0</i>
   <v type="int" name="KPOINT">    -1     0     0     0</v>
   <i type="logical" name="LTCTE"> F  </i>
   <i type="logical" name="LTETE"> F  </i>
   <i type="logical" name="LTRIPLET"> F  </i>
   <i type="logical" name="LFXCEPS"> F  </i>
   <i type="logical" name="LFXHEG"> F  </i>
   <i type="int" name="NATURALO">     2</i>
   <i type="logical" name="L2ORDER"> F  </i>
   <i type="logical" name="LMP2LT"> F  </i>
   <i type="logical" name="LUSEW"> F  </i>
   <i name="ENCUTGW">     -2.00000000</i>
   <i name="ENCUTGWSOFT">     -2.00000000</i>
   <i name="ENCUTLF">     -1.00000000</i>
   <i type="int" name="LMAXMP2">    -1</i>
   <i name="SCISSOR">      0.00000000</i>
   <i type="int" name="NOMEGA">     0</i>
   <i type="int" name="NOMEGAR">     0</i>
   <i type="int" name="NBANDSGW">    -1</i>
   <i type="int" name="NBANDSO">    -1</i>
   <i type="int" name="NBANDSV">    -1</i>
   <i type="int" name="NELM">   300</i>
   <i type="int" name="NELMHF">     1</i>
   <i type="int" name="DIM">     3</i>
   <i type="int" name="ANTIRES">     0</i>
   <i name="OMEGAMAX">    -30.00000000</i>
   <i name="OMEGAMIN">    -30.00000000</i>
   <i name="OMEGATL">   -200.00000000</i>
   <i type="int" name="OMEGAGRID">   140</i>
   <i name="CSHIFT">     -0.10000000</i>
   <i type="logical" name="SELFENERGY"> F  </i>
   <i type="logical" name="LSPECTRAL"> F  </i>
   <i type="logical" name="LSPECTRALGW"> F  </i>
   <i type="logical" name="LSINGLES"> F  </i>
   <i type="logical" name="LFERMIGW"> F  </i>
   <i type="logical" name="ODDONLYGW"> F  </i>
   <i type="logical" name="EVENONLYGW"> F  </i>
   <i type="int" name="NKREDLFX">     1</i>
   <i type="int" name="NKREDLFY">     1</i>
   <i type="int" name="NKREDLFZ">     1</i>
   <i type="int" name="MAXMEM">  2800</i>
   <i type="int" name="TELESCOPE">     0</i>
   <i type="int" name="TAUPAR">     1</i>
   <i type="int" name="OMEGAPAR">    -1</i>
   <i name="LAMBDA">      1.00000000</i>
  </separator>
  <separator name="External order field" >
   <i name="OFIELD_KAPPA">      0.00000000</i>
   <v name="OFIELD_K">      0.00000000      0.00000000      0.00000000</v>
   <i name="OFIELD_Q6_NEAR">      0.00000000</i>
   <i name="OFIELD_Q6_FAR">      0.00000000</i>
   <i name="OFIELD_A">      0.00000000</i>
  </separator>
 </parameters>
 <atominfo>
  <atoms>      51 </atoms>
  <types>       2 </types>
  <array name="atoms" >
   <dimension dim="1">ion</dimension>
   <field type="string">element</field>
   <field type="int">atomtype</field>
   <set>
    <rc><c>C </c><c>   1</c></rc>
    <rc><c>C </c><c>   1</c></rc>
    <rc><c>C </c><c>   1</c></rc>
    <rc><c>C </c><c>   1</c></rc>
    <rc><c>C </c><c>   1</c></rc>
    <rc><c>C </c><c>   1</c></rc>
    <rc><c>C </c><c>   1</c></rc>
    <rc><c>C </c><c>   1</c></rc>
    <rc><c>C </c><c>   1</c></rc>
    <rc><c>C </c><c>   1</c></rc>
    <rc><c>C </c><c>   1</c></rc>
    <rc><c>C </c><c>   1</c></rc>
    <rc><c>C </c><c>   1</c></rc>
    <rc><c>C </c><c>   1</c></rc>
    <rc><c>C </c><c>   1</c></rc>
    <rc><c>C </c><c>   1</c></rc>
    <rc><c>C </c><c>   1</c></rc>
    <rc><c>C </c><c>   1</c></rc>
    <rc><c>C </c><c>   1</c></rc>
    <rc><c>C </c><c>   1</c></rc>
    <rc><c>C </c><c>   1</c></rc>
    <rc><c>C </c><c>   1</c></rc>
    <rc><c>C </c><c>   1</c></rc>
    <rc><c>C </c><c>   1</c></rc>
    <rc><c>C </c><c>   1</c></rc>
    <rc><c>C </c><c>   1</c></rc>
    <rc><c>C </c><c>   1</c></rc>
    <rc><c>C </c><c>   1</c></rc>
    <rc><c>C </c><c>   1</c></rc>
    <rc><c>C </c><c>   1</c></rc>
    <rc><c>C </c><c>   1</c></rc>
    <rc><c>C </c><c>   1</c></rc>
    <rc><c>C </c><c>   1</c></rc>
    <rc><c>C </c><c>   1</c></rc>
    <rc><c>C </c><c>   1</c></rc>
    <rc><c>C </c><c>   1</c></rc>
    <rc><c>C </c><c>   1</c></rc>
    <rc><c>C </c><c>   1</c></rc>
    <rc><c>C </c><c>   1</c></rc>
    <rc><c>C </c><c>   1</c></rc>
    <rc><c>C </c><c>   1</c></rc>
    <rc><c>C </c><c>   1</c></rc>
    <rc><c>C </c><c>   1</c></rc>
    <rc><c>C </c><c>   1</c></rc>
    <rc><c>C </c><c>   1</c></rc>
    <rc><c>C </c><c>   1</c></rc>
    <rc><c>C </c><c>   1</c></rc>
    <rc><c>C </c><c>   1</c></rc>
    <rc><c>C </c><c>   1</c></rc>
    <rc><c>C </c><c>   1</c></rc>
    <rc><c>O </c><c>   2</c></rc>
   </set>
  </array>
  <array name="atomtypes" >
   <dimension dim="1">type</dimension>
   <field type="int">atomspertype</field>
   <field type="string">element</field>
   <field>mass</field>
   <field>valence</field>
   <field type="string">pseudopotential</field>
   <set>
    <rc><c>  50</c><c>C </c><c>     12.01100000</c><c>      4.00000000</c><c>  PAW_PBE C 08Apr2002                   </c></rc>
    <rc><c>   1</c><c>O </c><c>     16.00000000</c><c>      6.00000000</c><c>  PAW_PBE O 08Apr2002                   </c></rc>
   </set>
  </array>
 </atominfo>
 <structure name="initialpos" >
  <crystal>
   <varray name="basis" >
    <v>      12.30000019       0.00000000       0.00000000 </v>
    <v>       6.15000080      10.65211222       0.00000000 </v>
    <v>       0.00000000       0.00000000      20.00000000 </v>
   </varray>
   <i name="volume">   2620.41964732 </i>
   <varray name="rec_basis" >
    <v>       0.08130081      -0.04693905       0.00000000 </v>
    <v>       0.00000000       0.09387809       0.00000000 </v>
    <v>       0.00000000       0.00000000       0.05000000 </v>
   </varray>
  </crystal>
  <varray name="positions" >
   <v>       0.00000000       0.00000000       0.41799748 </v>
   <v>       0.20000000       0.00000000       0.41799748 </v>
   <v>       0.40000000       0.00000000       0.41799748 </v>
   <v>       0.60000000       0.00000000       0.41799748 </v>
   <v>       0.80000000       0.00000000       0.41799748 </v>
   <v>       0.00000000       0.20000000       0.41799748 </v>
   <v>       0.20000000       0.20000000       0.41799748 </v>
   <v>       0.40000000       0.20000000       0.41799748 </v>
   <v>       0.60000000       0.20000000       0.41799748 </v>
   <v>       0.80000000       0.20000000       0.41799748 </v>
   <v>       0.00000000       0.40000000       0.41799748 </v>
   <v>       0.20000000       0.40000000       0.41799748 </v>
   <v>       0.40000000       0.40000000       0.41799748 </v>
   <v>       0.60000000       0.40000000       0.41799748 </v>
   <v>       0.80000000       0.40000000       0.41799748 </v>
   <v>       0.00000000       0.60000000       0.41799748 </v>
   <v>       0.20000000       0.60000000       0.41799748 </v>
   <v>       0.40000000       0.60000000       0.41799748 </v>
   <v>       0.60000000       0.60000000       0.41799748 </v>
   <v>       0.80000000       0.60000000       0.41799748 </v>
   <v>       0.00000000       0.80000000       0.41799748 </v>
   <v>       0.20000000       0.80000000       0.41799748 </v>
   <v>       0.40000000       0.80000000       0.41799748 </v>
   <v>       0.60000000       0.80000000       0.41799748 </v>
   <v>       0.80000000       0.80000000       0.41799748 </v>
   <v>       0.06666667       0.06666660       0.41800609 </v>
   <v>       0.26666667       0.06666660       0.41800609 </v>
   <v>       0.46666667       0.06666660       0.41750609 </v>
   <v>       0.66666667       0.06666660       0.41800609 </v>
   <v>       0.86666667       0.06666660       0.41800609 </v>
   <v>       0.06666667       0.26666660       0.41800609 </v>
   <v>       0.26666667       0.26666660       0.41800609 </v>
   <v>       0.46666667       0.26666660       0.41800609 </v>
   <v>       0.66666667       0.26666660       0.41800609 </v>
   <v>       0.86666667       0.26666660       0.41800609 </v>
   <v>       0.06666667       0.46666660       0.41800609 </v>
   <v>       0.26666667       0.46666660       0.41800609 </v>
   <v>       0.46666667       0.46666660       0.41800609 </v>
   <v>       0.66666667       0.46666660       0.41800609 </v>
   <v>       0.86666667       0.46666660       0.41800609 </v>
   <v>       0.06666667       0.66666660       0.41800609 </v>
   <v>       0.26666667       0.66666660       0.41800609 </v>
   <v>       0.46666667       0.66666660       0.41800609 </v>
   <v>       0.66666667       0.66666660       0.41800609 </v>
   <v>       0.86666667       0.66666660       0.41800609 </v>
   <v>       0.06666667       0.86666660       0.41800609 </v>
   <v>       0.26666667       0.86666660       0.41800609 </v>
   <v>       0.46666667       0.86666660       0.41800609 </v>
   <v>       0.66666667       0.86666660       0.41800609 </v>
   <v>       0.86666667       0.86666660       0.41800609 </v>
   <v>       0.40000000       0.40000000       0.46800609 </v>
  </varray>
  <varray name="velocities" >
   <v>       0.00000000       0.00000000       0.00000000 </v>
   <v>       0.00000000       0.00000000       0.00000000 </v>
   <v>       0.00000000       0.00000000       0.00000000 </v>
   <v>       0.00000000       0.00000000       0.00000000 </v>
   <v>       0.00000000       0.00000000       0.00000000 </v>
   <v>       0.00000000       0.00000000       0.00000000 </v>
   <v>       0.00000000       0.00000000       0.00000000 </v>
   <v>       0.00000000       0.00000000       0.00000000 </v>
   <v>       0.00000000       0.00000000       0.00000000 </v>
   <v>       0.00000000       0.00000000       0.00000000 </v>
   <v>       0.00000000       0.00000000       0.00000000 </v>
   <v>       0.00000000       0.00000000       0.00000000 </v>
   <v>       0.00000000       0.00000000       0.00000000 </v>
   <v>       0.00000000       0.00000000       0.00000000 </v>
   <v>       0.00000000       0.00000000       0.00000000 </v>
   <v>       0.00000000       0.00000000       0.00000000 </v>
   <v>       0.00000000       0.00000000       0.00000000 </v>
   <v>       0.00000000       0.00000000       0.00000000 </v>
   <v>       0.00000000       0.00000000       0.00000000 </v>
   <v>       0.00000000       0.00000000       0.00000000 </v>
   <v>       0.00000000       0.00000000       0.00000000 </v>
   <v>       0.00000000       0.00000000       0.00000000 </v>
   <v>       0.00000000       0.00000000       0.00000000 </v>
   <v>       0.00000000       0.00000000       0.00000000 </v>
   <v>       0.00000000       0.00000000       0.00000000 </v>
   <v>       0.00000000       0.00000000       0.00000000 </v>
   <v>       0.00000000       0.00000000       0.00000000 </v>
   <v>       0.00000000       0.00000000       0.00000000 </v>
   <v>       0.00000000       0.00000000       0.00000000 </v>
   <v>       0.00000000       0.00000000       0.00000000 </v>
   <v>       0.00000000       0.00000000       0.00000000 </v>
   <v>       0.00000000       0.00000000       0.00000000 </v>
   <v>       0.00000000       0.00000000       0.00000000 </v>
   <v>       0.00000000       0.00000000       0.00000000 </v>
   <v>       0.00000000       0.00000000       0.00000000 </v>
   <v>       0.00000000       0.00000000       0.00000000 </v>
   <v>       0.00000000       0.00000000       0.00000000 </v>
   <v>       0.00000000       0.00000000       0.00000000 </v>
   <v>       0.00000000       0.00000000       0.00000000 </v>
   <v>       0.00000000       0.00000000       0.00000000 </v>
   <v>       0.00000000       0.00000000       0.00000000 </v>
   <v>       0.00000000       0.00000000       0.00000000 </v>
   <v>       0.00000000       0.00000000       0.00000000 </v>
   <v>       0.00000000       0.00000000       0.00000000 </v>
   <v>       0.00000000       0.00000000       0.00000000 </v>
   <v>       0.00000000       0.00000000       0.00000000 </v>
   <v>       0.00000000       0.00000000       0.00000000 </v>
   <v>       0.00000000       0.00000000       0.00000000 </v>
   <v>       0.00000000       0.00000000       0.00000000 </v>
   <v>       0.00000000       0.00000000       0.00000000 </v>
   <v>       0.00000000       0.00000000       0.00000000 </v>
  </varray>
 </structure>
 <calculation>
  <scstep>
   <time name="dav">    4.13    4.13</time>
   <time name="total">    4.72    4.72</time>
   <energy>
    <i name="alphaZ">     82.54348252 </i>
    <i name="ewald">  34516.44902358 </i>
    <i name="hartreedc"> -41034.76250136 </i>
    <i name="XCdc">    721.37957672 </i>
    <i name="pawpsdc">  22781.19595426 </i>
    <i name="pawaedc"> -22817.52509957 </i>
    <i name="eentropy">     -0.00054986 </i>
    <i name="bandstr">  -2491.19738106 </i>
    <i name="atom">   7788.62438962 </i>
    <i name="e_fr_energy">   -453.29310516 </i>
    <i name="e_wo_entrp">   -453.29255529 </i>
    <i name="e_0_energy">   -453.29283023 </i>
   </energy>
  </scstep>
  <scstep>
   <time name="diag">    0.88    0.88</time>
   <time name="diis">    3.79    3.79</time>
   <time name="orth">    0.04    0.04</time>
   <time name="total">    5.28    5.29</time>
   <energy>
    <i name="e_fr_energy">   -454.28090963 </i>
    <i name="e_wo_entrp">   -454.28081002 </i>
    <i name="e_0_energy">   -454.28085983 </i>
   </energy>
  </scstep>
  <scstep>
   <time name="diag">    0.88    0.88</time>
   <time name="diis">    4.14    4.15</time>
   <time name="orth">    0.04    0.04</time>
   <time name="total">    5.64    5.65</time>
   <energy>
    <i name="e_fr_energy">   -454.33321644 </i>
    <i name="e_wo_entrp">   -454.33308693 </i>
    <i name="e_0_energy">   -454.33315168 </i>
   </energy>
  </scstep>
  <scstep>
   <time name="diag">    0.88    0.88</time>
   <time name="diis">    4.10    4.10</time>
   <time name="orth">    0.04    0.04</time>
   <time name="total">    5.59    5.60</time>
   <energy>
    <i name="e_fr_energy">   -454.33710131 </i>
    <i name="e_wo_entrp">   -454.33698792 </i>
    <i name="e_0_energy">   -454.33704462 </i>
   </energy>
  </scstep>
  <scstep>
   <time name="diag">    0.87    0.87</time>
   <time name="diis">    4.05    4.05</time>
   <time name="orth">    0.04    0.04</time>
   <time name="total">    5.54    5.54</time>
   <energy>
    <i name="e_fr_energy">   -454.33724891 </i>
    <i name="e_wo_entrp">   -454.33713317 </i>
    <i name="e_0_energy">   -454.33719104 </i>
   </energy>
  </scstep>
  <scstep>
   <time name="diag">    0.88    0.88</time>
   <time name="diis">    4.00    4.00</time>
   <time name="orth">    0.04    0.04</time>
   <time name="total">    5.49    5.49</time>
   <energy>
    <i name="e_fr_energy">   -454.33725241 </i>
    <i name="e_wo_entrp">   -454.33713472 </i>
    <i name="e_0_energy">   -454.33719357 </i>
   </energy>
  </scstep>
  <scstep>
   <time name="diag">    0.90    0.90</time>
   <time name="diis">    3.20    3.20</time>
   <time name="orth">    0.04    0.04</time>
   <time name="total">    4.73    4.73</time>
   <energy>
    <i name="e_fr_energy">   -454.33727037 </i>
    <i name="e_wo_entrp">   -454.33715150 </i>
    <i name="e_0_energy">   -454.33721094 </i>
   </energy>
  </scstep>
  <scstep>
   <time name="diag">    0.90    0.90</time>
   <time name="diis">    2.71    2.72</time>
   <time name="orth">    0.04    0.04</time>
   <time name="total">    3.84    3.84</time>
   <energy>
    <i name="alphaZ">     82.54348252 </i>
    <i name="ewald">  34516.44902358 </i>
    <i name="hartreedc"> -41034.73267238 </i>
    <i name="XCdc">    721.38015442 </i>
    <i name="pawpsdc">  22780.39002280 </i>
    <i name="pawaedc"> -22816.71955363 </i>
    <i name="eentropy">     -0.00011851 </i>
    <i name="bandstr">  -2492.27200159 </i>
    <i name="atom">   7788.62438962 </i>
    <i name="e_fr_energy">   -454.33727317 </i>
    <i name="e_wo_entrp">   -454.33715466 </i>
    <i name="e_0_energy">   -454.33721391 </i>
   </energy>
  </scstep>
  <structure>
   <crystal>
    <varray name="basis" >
     <v>      12.30000019       0.00000000       0.00000000 </v>
     <v>       6.15000080      10.65211222       0.00000000 </v>
     <v>       0.00000000       0.00000000      20.00000000 </v>
    </varray>
    <i name="volume">   2620.41964732 </i>
    <varray name="rec_basis" >
     <v>       0.08130081      -0.04693905       0.00000000 </v>
     <v>       0.00000000       0.09387809       0.00000000 </v>
     <v>       0.00000000       0.00000000       0.05000000 </v>
    </varray>
   </crystal>
   <varray name="positions" >
    <v>       0.00000000       0.00000000       0.41799748 </v>
    <v>       0.20000000       0.00000000       0.41799748 </v>
    <v>       0.40000000       0.00000000       0.41799748 </v>
    <v>       0.60000000       0.00000000       0.41799748 </v>
    <v>       0.80000000       0.00000000       0.41799748 </v>
    <v>       0.00000000       0.20000000       0.41799748 </v>
    <v>       0.20000000       0.20000000       0.41799748 </v>
    <v>       0.40000000       0.20000000       0.41799748 </v>
    <v>       0.60000000       0.20000000       0.41799748 </v>
    <v>       0.80000000       0.20000000       0.41799748 </v>
    <v>       0.00000000       0.40000000       0.41799748 </v>
    <v>       0.20000000       0.40000000       0.41799748 </v>
    <v>       0.40000000       0.40000000       0.41799748 </v>
    <v>       0.60000000       0.40000000       0.41799748 </v>
    <v>       0.80000000       0.40000000       0.41799748 </v>
    <v>       0.00000000       0.60000000       0.41799748 </v>
    <v>       0.20000000       0.60000000       0.41799748 </v>
    <v>       0.40000000       0.60000000       0.41799748 </v>
    <v>       0.60000000       0.60000000       0.41799748 </v>
    <v>       0.80000000       0.60000000       0.41799748 </v>
    <v>       0.00000000       0.80000000       0.41799748 </v>
    <v>       0.20000000       0.80000000       0.41799748 </v>
    <v>       0.40000000       0.80000000       0.41799748 </v>
    <v>       0.60000000       0.80000000       0.41799748 </v>
    <v>       0.80000000       0.80000000       0.41799748 </v>
    <v>       0.06666667       0.06666660       0.41800609 </v>
    <v>       0.26666667       0.06666660       0.41800609 </v>
    <v>       0.46666667       0.06666660       0.41750609 </v>
    <v>       0.66666667       0.06666660       0.41800609 </v>
    <v>       0.86666667       0.06666660       0.41800609 </v>
    <v>       0.06666667       0.26666660       0.41800609 </v>
    <v>       0.26666667       0.26666660       0.41800609 </v>
    <v>       0.46666667       0.26666660       0.41800609 </v>
    <v>       0.66666667       0.26666660       0.41800609 </v>
    <v>       0.86666667       0.26666660       0.41800609 </v>
    <v>       0.06666667       0.46666660       0.41800609 </v>
    <v>       0.26666667       0.46666660       0.41800609 </v>
    <v>       0.46666667       0.46666660       0.41800609 </v>
    <v>       0.66666667       0.46666660       0.41800609 </v>
    <v>       0.86666667       0.46666660       0.41800609 </v>
    <v>       0.06666667       0.66666660       0.41800609 </v>
    <v>       0.26666667       0.66666660       0.41800609 </v>
    <v>       0.46666667       0.66666660       0.41800609 </v>
    <v>       0.66666667       0.66666660       0.41800609 </v>
    <v>       0.86666667       0.66666660       0.41800609 </v>
    <v>       0.06666667       0.86666660       0.41800609 </v>
    <v>       0.26666667       0.86666660       0.41800609 </v>
    <v>       0.46666667       0.86666660       0.41800609 </v>
    <v>       0.66666667       0.86666660       0.41800609 </v>
    <v>       0.86666667       0.86666660       0.41800609 </v>
    <v>       0.40000000       0.40000000       0.46800609 </v>
   </varray>
  </structure>
  <varray name="forces" >
   <v>      -0.04786850      -0.02753476       0.00869872 </v>
   <v>       0.04687539      -0.02786507       0.01462470 </v>
   <v>      -0.15978365       0.01476521      -0.08662151 </v>
   <v>       0.00074330      -0.20749615      -0.08813107 </v>
   <v>       0.15901253       0.01403284      -0.02111345 </v>
   <v>      -0.00000038       0.05510215       0.00938083 </v>
   <v>       0.42917141       0.24688422      -0.00376431 </v>
   <v>       0.08758746      -0.20932444       0.10823938 </v>
   <v>      -0.09512728      -0.20515202       0.16135294 </v>
   <v>      -0.42929361       0.24790746       0.00021585 </v>
   <v>      -0.06741273      -0.14502026      -0.02587429 </v>
   <v>      -0.13045727       0.18580185       0.16879850 </v>
   <v>       0.00046276      -0.00144216     -48.15728906 </v>
   <v>       0.13046070       0.18464218       0.16488384 </v>
   <v>       0.06712429      -0.14520122      -0.02616616 </v>
   <v>      -0.17971537       0.10420640      -0.02771691 </v>
   <v>      -0.22463432       0.02064449       0.16474193 </v>
   <v>       0.22452491       0.01926313       0.16484708 </v>
   <v>       0.17964607       0.10396183      -0.02701039 </v>
   <v>      -0.00004459      -0.01279151       0.01789527 </v>
   <v>       0.09201273       0.13064382      -0.02656263 </v>
   <v>      -0.00005586      -0.49529143      -0.00065809 </v>
   <v>      -0.09210561       0.13040663      -0.02124866 </v>
   <v>      -0.01165257       0.00625185       0.01424708 </v>
   <v>       0.01130939       0.00670009       0.02279399 </v>
   <v>       0.00036577      -0.00030561      -0.00588941 </v>
   <v>       0.09770700      -0.21707164       0.01473032 </v>
   <v>       0.19421467       0.25355708       0.39972699 </v>
   <v>      -0.19369544       0.24957315       0.26204241 </v>
   <v>      -0.09695011      -0.21740490       0.01007218 </v>
   <v>      -0.13986738       0.19289381       0.00942619 </v>
   <v>      -0.44035773      -0.25574419      -0.35187272 </v>
   <v>       0.00659658      -5.07094053      -4.34569542 </v>
   <v>       0.44223452      -0.25491530      -0.35620364 </v>
   <v>       0.13964432       0.19294535       0.01014903 </v>
   <v>       0.31443268       0.04279068       0.25772624 </v>
   <v>      -4.39699690       2.53803423      -4.35010351 </v>
   <v>       4.39718990       2.53900611      -4.34953294 </v>
   <v>      -0.31414362       0.04290120       0.25713465 </v>
   <v>       0.00017594       0.08209711      -0.02203790 </v>
   <v>       0.11928512      -0.29319262       0.25709240 </v>
   <v>      -0.00019023       0.51031262      -0.35536943 </v>
   <v>      -0.11914825      -0.29317419       0.25695771 </v>
   <v>      -0.08200011      -0.04729799      -0.02716090 </v>
   <v>       0.08206624      -0.04752283      -0.02628040 </v>
   <v>      -0.23685476       0.02446996       0.01016008 </v>
   <v>       0.23661392       0.02480035       0.00940624 </v>
   <v>       0.07118664      -0.04112558      -0.01743817 </v>
   <v>       0.00063740       0.09505373      -0.02283259 </v>
   <v>      -0.07122067      -0.04108710      -0.02282769 </v>
   <v>      -0.00170470      -0.00274803      59.99005670 </v>
  </varray>
  <varray name="stress" >
   <v>       9.51700088       0.00094654      -0.00243595 </v>
   <v>       0.00094653       9.50572619      -0.00321198 </v>
   <v>      -0.00243594      -0.00321198      31.95301816 </v>
  </varray>
  <energy>
   <i name="e_fr_energy">   -454.33727317 </i>
   <i name="e_wo_entrp">   -454.33721391 </i>
   <i name="e_0_energy">     -0.00011851 </i>
  </energy>
  <time name="totalsc">   46.95   47.01</time>
  <eigenvalues>
   <array>
    <dimension dim="1">band</dimension>
    <dimension dim="2">kpoint</dimension>
    <dimension dim="3">spin</dimension>
    <field>eigene</field>
    <field>occ</field>
    <set>
     <set comment="spin 1">
      <set comment="kpoint 1">
       <r>  -31.7412    1.0000 </r>
       <r>  -22.2712    1.0000 </r>
       <r>  -21.5033    1.0000 </r>
       <r>  -21.5032    1.0000 </r>
       <r>  -21.3946    1.0000 </r>
       <r>  -21.3945    1.0000 </r>
       <r>  -21.3940    1.0000 </r>
       <r>  -20.8745    1.0000 </r>
       <r>  -19.8770    1.0000 </r>
       <r>  -19.8768    1.0000 </r>
       <r>  -19.5494    1.0000 </r>
       <r>  -19.5493    1.0000 </r>
       <r>  -19.5391    1.0000 </r>
       <r>  -19.1914    1.0000 </r>
       <r>  -18.9012    1.0000 </r>
       <r>  -18.9012    1.0000 </r>
       <r>  -18.6438    1.0000 </r>
       <r>  -18.6433    1.0000 </r>
       <r>  -18.6432    1.0000 </r>
       <r>  -17.8845    1.0000 </r>
       <r>  -17.0219    1.0000 </r>
       <r>  -17.0217    1.0000 </r>
       <r>  -16.4780    1.0000 </r>
       <r>  -16.4583    1.0000 </r>
       <r>  -16.4583    1.0000 </r>
       <r>  -16.0497    1.0000 </r>
       <r>  -15.9970    1.0000 </r>
       <r>  -15.9969    1.0000 </r>
       <r>  -15.4977    1.0000 </r>
       <r>  -15.4976    1.0000 </r>
       <r>  -15.4931    1.0000 </r>
       <r>  -15.0898    1.0000 </r>
       <r>  -14.6297    1.0000 </r>
       <r>  -14.6295    1.0000 </r>
       <r>  -14.1500    1.0000 </r>
       <r>  -14.1499    1.0000 </r>
       <r>  -14.1433    1.0000 </r>
       <r>  -13.9650    1.0000 </r>
       <r>  -12.9915    1.0000 </r>
       <r>  -12.9913    1.0000 </r>
       <r>  -12.0319    1.0000 </r>
       <r>  -11.7651    1.0000 </r>
       <r>  -11.7651    1.0000 </r>
       <r>  -11.7620    1.0000 </r>
       <r>  -11.6905    1.0000 </r>
       <r>  -11.6905    1.0000 </r>
       <r>  -11.6518    1.0000 </r>
       <r>  -11.6499    1.0000 </r>
       <r>  -11.6499    1.0000 </r>
       <r>  -11.6489    1.0000 </r>
       <r>  -10.8022    1.0000 </r>
       <r>  -10.8019    1.0000 </r>
       <r>  -10.4291    1.0000 </r>
       <r>  -10.3342    1.0000 </r>
       <r>  -10.2891    1.0000 </r>
       <r>  -10.2890    1.0000 </r>
       <r>  -10.2708    1.0000 </r>
       <r>  -10.0784    1.0000 </r>
       <r>   -9.6858    1.0000 </r>
       <r>   -9.6848    1.0000 </r>
       <r>   -9.3259    1.0000 </r>
       <r>   -9.3251    1.0000 </r>
       <r>   -9.3002    1.0000 </r>
       <r>   -9.2806    1.0000 </r>
       <r>   -9.2800    1.0000 </r>
       <r>   -9.0463    1.0000 </r>
       <r>   -9.0049    1.0000 </r>
       <r>   -9.0049    1.0000 </r>
       <r>   -8.9489    1.0000 </r>
       <r>   -8.9414    1.0000 </r>
       <r>   -8.9407    1.0000 </r>
       <r>   -8.9406    1.0000 </r>
       <r>   -8.9192    1.0000 </r>
       <r>   -8.9192    1.0000 </r>
       <r>   -8.8945    1.0000 </r>
       <r>   -8.4347    1.0000 </r>
       <r>   -7.8019    1.0000 </r>
       <r>   -7.7993    1.0000 </r>
       <r>   -7.3250    1.0000 </r>
       <r>   -7.3240    1.0000 </r>
       <r>   -7.3105    1.0000 </r>
       <r>   -7.3029    1.0000 </r>
       <r>   -7.3005    1.0000 </r>
       <r>   -7.3000    1.0000 </r>
       <r>   -7.1611    1.0000 </r>
       <r>   -7.1607    1.0000 </r>
       <r>   -7.1551    1.0000 </r>
       <r>   -6.7513    1.0000 </r>
       <r>   -6.5079    1.0000 </r>
       <r>   -6.5071    1.0000 </r>
       <r>   -6.2670    1.0000 </r>
       <r>   -6.2466    1.0000 </r>
       <r>   -6.2465    1.0000 </r>
       <r>   -5.9243    1.0000 </r>
       <r>   -5.9233    1.0000 </r>
       <r>   -5.1957    1.0000 </r>
       <r>   -4.7641    1.0000 </r>
       <r>   -4.7628    1.0000 </r>
       <r>   -4.2707    1.0000 </r>
       <r>   -4.2665    1.0000 </r>
       <r>   -4.2664    1.0000 </r>
       <r>   -3.2152    1.0000 </r>
       <r>   -3.2128    1.0000 </r>
       <r>   -2.9165    0.0022 </r>
       <r>   -1.4615    0.0000 </r>
       <r>   -1.4573    0.0000 </r>
       <r>   -1.4572    0.0000 </r>
       <r>   -0.9917    0.0000 </r>
       <r>   -0.9912    0.0000 </r>
       <r>   -0.5434    0.0000 </r>
       <r>    0.4170    0.0000 </r>
       <r>    0.4216    0.0000 </r>
       <r>    0.4217    0.0000 </r>
       <r>    0.5622    0.0000 </r>
       <r>    0.8424    0.0000 </r>
       <r>    0.8439    0.0000 </r>
       <r>    1.2919    0.0000 </r>
       <r>    1.3393    0.0000 </r>
       <r>    1.6744    0.0000 </r>
       <r>    1.8023    0.0000 </r>
       <r>    1.8030    0.0000 </r>
       <r>    1.8031    0.0000 </r>
       <r>    1.8255    0.0000 </r>
       <r>    1.8272    0.0000 </r>
       <r>    2.0305    0.0000 </r>
       <r>    2.1765    0.0000 </r>
       <r>    2.1792    0.0000 </r>
       <r>    2.1794    0.0000 </r>
       <r>    2.3463    0.0000 </r>
       <r>    2.3471    0.0000 </r>
       <r>    2.6247    0.0000 </r>
       <r>    2.6447    0.0000 </r>
      </set>
      <set comment="kpoint 2">
       <r>  -31.7413    1.0000 </r>
       <r>  -22.1891    1.0000 </r>
       <r>  -21.8694    1.0000 </r>
       <r>  -21.6615    1.0000 </r>
       <r>  -21.4547    1.0000 </r>
       <r>  -21.0349    1.0000 </r>
       <r>  -20.8974    1.0000 </r>
       <r>  -20.7276    1.0000 </r>
       <r>  -20.4204    1.0000 </r>
       <r>  -20.1624    1.0000 </r>
       <r>  -19.7872    1.0000 </r>
       <r>  -19.6995    1.0000 </r>
       <r>  -19.3265    1.0000 </r>
       <r>  -19.2431    1.0000 </r>
       <r>  -19.0619    1.0000 </r>
       <r>  -18.5930    1.0000 </r>
       <r>  -18.4582    1.0000 </r>
       <r>  -18.1216    1.0000 </r>
       <r>  -18.0632    1.0000 </r>
       <r>  -17.5911    1.0000 </r>
       <r>  -17.4981    1.0000 </r>
       <r>  -17.3010    1.0000 </r>
       <r>  -17.2768    1.0000 </r>
       <r>  -16.8517    1.0000 </r>
       <r>  -16.6588    1.0000 </r>
       <r>  -16.1764    1.0000 </r>
       <r>  -15.9782    1.0000 </r>
       <r>  -15.8480    1.0000 </r>
       <r>  -15.2986    1.0000 </r>
       <r>  -15.1701    1.0000 </r>
       <r>  -15.1345    1.0000 </r>
       <r>  -14.8850    1.0000 </r>
       <r>  -14.7820    1.0000 </r>
       <r>  -14.4783    1.0000 </r>
       <r>  -14.4562    1.0000 </r>
       <r>  -13.7675    1.0000 </r>
       <r>  -13.7604    1.0000 </r>
       <r>  -13.1964    1.0000 </r>
       <r>  -13.0896    1.0000 </r>
       <r>  -12.9345    1.0000 </r>
       <r>  -12.9046    1.0000 </r>
       <r>  -12.5854    1.0000 </r>
       <r>  -12.5503    1.0000 </r>
       <r>  -12.3903    1.0000 </r>
       <r>  -12.0222    1.0000 </r>
       <r>  -11.6637    1.0000 </r>
       <r>  -11.4477    1.0000 </r>
       <r>  -11.2963    1.0000 </r>
       <r>  -11.1221    1.0000 </r>
       <r>  -10.9146    1.0000 </r>
       <r>  -10.8502    1.0000 </r>
       <r>  -10.5845    1.0000 </r>
       <r>  -10.5330    1.0000 </r>
       <r>  -10.2856    1.0000 </r>
       <r>  -10.2369    1.0000 </r>
       <r>  -10.1612    1.0000 </r>
       <r>  -10.0496    1.0000 </r>
       <r>   -9.8536    1.0000 </r>
       <r>   -9.8206    1.0000 </r>
       <r>   -9.6546    1.0000 </r>
       <r>   -9.6078    1.0000 </r>
       <r>   -9.5609    1.0000 </r>
       <r>   -9.5272    1.0000 </r>
       <r>   -9.3710    1.0000 </r>
       <r>   -9.3404    1.0000 </r>
       <r>   -9.2597    1.0000 </r>
       <r>   -9.1759    1.0000 </r>
       <r>   -9.0998    1.0000 </r>
       <r>   -9.0827    1.0000 </r>
       <r>   -8.8643    1.0000 </r>
       <r>   -8.7137    1.0000 </r>
       <r>   -8.6643    1.0000 </r>
       <r>   -8.5046    1.0000 </r>
       <r>   -8.4032    1.0000 </r>
       <r>   -8.2887    1.0000 </r>
       <r>   -8.1336    1.0000 </r>
       <r>   -8.0947    1.0000 </r>
       <r>   -8.0658    1.0000 </r>
       <r>   -7.9715    1.0000 </r>
       <r>   -7.8064    1.0000 </r>
       <r>   -7.6204    1.0000 </r>
       <r>   -7.3608    1.0000 </r>
       <r>   -7.3356    1.0000 </r>
       <r>   -7.2666    1.0000 </r>
       <r>   -7.1977    1.0000 </r>
       <r>   -6.9201    1.0000 </r>
       <r>   -6.8728    1.0000 </r>
       <r>   -6.6951    1.0000 </r>
       <r>   -6.5910    1.0000 </r>
       <r>   -6.3492    1.0000 </r>
       <r>   -6.1859    1.0000 </r>
       <r>   -6.0738    1.0000 </r>
       <r>   -5.9217    1.0000 </r>
       <r>   -5.7396    1.0000 </r>
       <r>   -5.6413    1.0000 </r>
       <r>   -5.3226    1.0000 </r>
       <r>   -5.1151    1.0000 </r>
       <r>   -4.9702    1.0000 </r>
       <r>   -4.9227    1.0000 </r>
       <r>   -4.2700    1.0000 </r>
       <r>   -4.1677    1.0000 </r>
       <r>   -3.3360    1.0000 </r>
       <r>   -3.1367    0.9996 </r>
       <r>   -2.8042    0.0000 </r>
       <r>   -1.5912    0.0000 </r>
       <r>   -1.4240    0.0000 </r>
       <r>   -0.8401    0.0000 </r>
       <r>   -0.8191    0.0000 </r>
       <r>   -0.7063    0.0000 </r>
       <r>   -0.6682    0.0000 </r>
       <r>   -0.1291    0.0000 </r>
       <r>   -0.0063    0.0000 </r>
       <r>    0.2926    0.0000 </r>
       <r>    0.7042    0.0000 </r>
       <r>    0.7265    0.0000 </r>
       <r>    1.1005    0.0000 </r>
       <r>    1.1739    0.0000 </r>
       <r>    1.3650    0.0000 </r>
       <r>    1.4625    0.0000 </r>
       <r>    1.5373    0.0000 </r>
       <r>    1.5704    0.0000 </r>
       <r>    1.6371    0.0000 </r>
       <r>    1.8238    0.0000 </r>
       <r>    1.9115    0.0000 </r>
       <r>    2.0386    0.0000 </r>
       <r>    2.2207    0.0000 </r>
       <r>    2.2651    0.0000 </r>
       <r>    2.3284    0.0000 </r>
       <r>    2.3393    0.0000 </r>
       <r>    2.3949    0.0000 </r>
       <r>    2.4575    0.0000 </r>
       <r>    2.7956    0.0000 </r>
      </set>
      <set comment="kpoint 3">
       <r>  -31.7413    1.0000 </r>
       <r>  -22.1891    1.0000 </r>
       <r>  -21.8694    1.0000 </r>
       <r>  -21.6614    1.0000 </r>
       <r>  -21.4548    1.0000 </r>
       <r>  -21.0349    1.0000 </r>
       <r>  -20.8975    1.0000 </r>
       <r>  -20.7277    1.0000 </r>
       <r>  -20.4203    1.0000 </r>
       <r>  -20.1624    1.0000 </r>
       <r>  -19.7872    1.0000 </r>
       <r>  -19.6994    1.0000 </r>
       <r>  -19.3265    1.0000 </r>
       <r>  -19.2431    1.0000 </r>
       <r>  -19.0620    1.0000 </r>
       <r>  -18.5930    1.0000 </r>
       <r>  -18.4582    1.0000 </r>
       <r>  -18.1215    1.0000 </r>
       <r>  -18.0633    1.0000 </r>
       <r>  -17.5911    1.0000 </r>
       <r>  -17.4980    1.0000 </r>
       <r>  -17.3009    1.0000 </r>
       <r>  -17.2768    1.0000 </r>
       <r>  -16.8516    1.0000 </r>
       <r>  -16.6588    1.0000 </r>
       <r>  -16.1765    1.0000 </r>
       <r>  -15.9783    1.0000 </r>
       <r>  -15.8479    1.0000 </r>
       <r>  -15.2985    1.0000 </r>
       <r>  -15.1701    1.0000 </r>
       <r>  -15.1344    1.0000 </r>
       <r>  -14.8851    1.0000 </r>
       <r>  -14.7820    1.0000 </r>
       <r>  -14.4784    1.0000 </r>
       <r>  -14.4562    1.0000 </r>
       <r>  -13.7675    1.0000 </r>
       <r>  -13.7603    1.0000 </r>
       <r>  -13.1965    1.0000 </r>
       <r>  -13.0896    1.0000 </r>
       <r>  -12.9345    1.0000 </r>
       <r>  -12.9046    1.0000 </r>
       <r>  -12.5854    1.0000 </r>
       <r>  -12.5503    1.0000 </r>
       <r>  -12.3903    1.0000 </r>
       <r>  -12.0223    1.0000 </r>
       <r>  -11.6636    1.0000 </r>
       <r>  -11.4475    1.0000 </r>
       <r>  -11.2964    1.0000 </r>
       <r>  -11.1221    1.0000 </r>
       <r>  -10.9147    1.0000 </r>
       <r>  -10.8503    1.0000 </r>
       <r>  -10.5845    1.0000 </r>
       <r>  -10.5329    1.0000 </r>
       <r>  -10.2856    1.0000 </r>
       <r>  -10.2373    1.0000 </r>
       <r>  -10.1615    1.0000 </r>
       <r>  -10.0490    1.0000 </r>
       <r>   -9.8538    1.0000 </r>
       <r>   -9.8206    1.0000 </r>
       <r>   -9.6544    1.0000 </r>
       <r>   -9.6074    1.0000 </r>
       <r>   -9.5609    1.0000 </r>
       <r>   -9.5275    1.0000 </r>
       <r>   -9.3708    1.0000 </r>
       <r>   -9.3400    1.0000 </r>
       <r>   -9.2596    1.0000 </r>
       <r>   -9.1760    1.0000 </r>
       <r>   -9.0998    1.0000 </r>
       <r>   -9.0829    1.0000 </r>
       <r>   -8.8658    1.0000 </r>
       <r>   -8.7125    1.0000 </r>
       <r>   -8.6645    1.0000 </r>
       <r>   -8.5037    1.0000 </r>
       <r>   -8.4027    1.0000 </r>
       <r>   -8.2885    1.0000 </r>
       <r>   -8.1345    1.0000 </r>
       <r>   -8.0950    1.0000 </r>
       <r>   -8.0653    1.0000 </r>
       <r>   -7.9717    1.0000 </r>
       <r>   -7.8084    1.0000 </r>
       <r>   -7.6198    1.0000 </r>
       <r>   -7.3609    1.0000 </r>
       <r>   -7.3368    1.0000 </r>
       <r>   -7.2669    1.0000 </r>
       <r>   -7.1970    1.0000 </r>
       <r>   -6.9202    1.0000 </r>
       <r>   -6.8736    1.0000 </r>
       <r>   -6.6927    1.0000 </r>
       <r>   -6.5912    1.0000 </r>
       <r>   -6.3497    1.0000 </r>
       <r>   -6.1847    1.0000 </r>
       <r>   -6.0742    1.0000 </r>
       <r>   -5.9219    1.0000 </r>
       <r>   -5.7394    1.0000 </r>
       <r>   -5.6411    1.0000 </r>
       <r>   -5.3224    1.0000 </r>
       <r>   -5.1150    1.0000 </r>
       <r>   -4.9702    1.0000 </r>
       <r>   -4.9227    1.0000 </r>
       <r>   -4.2697    1.0000 </r>
       <r>   -4.1690    1.0000 </r>
       <r>   -3.3354    1.0000 </r>
       <r>   -3.1372    0.9997 </r>
       <r>   -2.8037    0.0000 </r>
       <r>   -1.5915    0.0000 </r>
       <r>   -1.4237    0.0000 </r>
       <r>   -0.8400    0.0000 </r>
       <r>   -0.8192    0.0000 </r>
       <r>   -0.7062    0.0000 </r>
       <r>   -0.6682    0.0000 </r>
       <r>   -0.1293    0.0000 </r>
       <r>   -0.0064    0.0000 </r>
       <r>    0.2926    0.0000 </r>
       <r>    0.7042    0.0000 </r>
       <r>    0.7267    0.0000 </r>
       <r>    1.0998    0.0000 </r>
       <r>    1.1741    0.0000 </r>
       <r>    1.3644    0.0000 </r>
       <r>    1.4629    0.0000 </r>
       <r>    1.5378    0.0000 </r>
       <r>    1.5710    0.0000 </r>
       <r>    1.6362    0.0000 </r>
       <r>    1.8245    0.0000 </r>
       <r>    1.9124    0.0000 </r>
       <r>    2.0398    0.0000 </r>
       <r>    2.2252    0.0000 </r>
       <r>    2.2664    0.0000 </r>
       <r>    2.3353    0.0000 </r>
       <r>    2.4250    0.0000 </r>
       <r>    2.7297    0.0000 </r>
       <r>    3.2544    0.0000 </r>
       <r>    3.6278    0.0000 </r>
      </set>
      <set comment="kpoint 4">
       <r>  -31.7413    1.0000 </r>
       <r>  -22.1891    1.0000 </r>
       <r>  -21.8695    1.0000 </r>
       <r>  -21.6615    1.0000 </r>
       <r>  -21.4547    1.0000 </r>
       <r>  -21.0349    1.0000 </r>
       <r>  -20.8974    1.0000 </r>
       <r>  -20.7277    1.0000 </r>
       <r>  -20.4203    1.0000 </r>
       <r>  -20.1624    1.0000 </r>
       <r>  -19.7872    1.0000 </r>
       <r>  -19.6995    1.0000 </r>
       <r>  -19.3265    1.0000 </r>
       <r>  -19.2431    1.0000 </r>
       <r>  -19.0619    1.0000 </r>
       <r>  -18.5930    1.0000 </r>
       <r>  -18.4582    1.0000 </r>
       <r>  -18.1216    1.0000 </r>
       <r>  -18.0632    1.0000 </r>
       <r>  -17.5911    1.0000 </r>
       <r>  -17.4981    1.0000 </r>
       <r>  -17.3009    1.0000 </r>
       <r>  -17.2768    1.0000 </r>
       <r>  -16.8517    1.0000 </r>
       <r>  -16.6587    1.0000 </r>
       <r>  -16.1764    1.0000 </r>
       <r>  -15.9782    1.0000 </r>
       <r>  -15.8480    1.0000 </r>
       <r>  -15.2985    1.0000 </r>
       <r>  -15.1701    1.0000 </r>
       <r>  -15.1345    1.0000 </r>
       <r>  -14.8850    1.0000 </r>
       <r>  -14.7820    1.0000 </r>
       <r>  -14.4783    1.0000 </r>
       <r>  -14.4562    1.0000 </r>
       <r>  -13.7675    1.0000 </r>
       <r>  -13.7603    1.0000 </r>
       <r>  -13.1965    1.0000 </r>
       <r>  -13.0897    1.0000 </r>
       <r>  -12.9345    1.0000 </r>
       <r>  -12.9046    1.0000 </r>
       <r>  -12.5854    1.0000 </r>
       <r>  -12.5503    1.0000 </r>
       <r>  -12.3904    1.0000 </r>
       <r>  -12.0224    1.0000 </r>
       <r>  -11.6637    1.0000 </r>
       <r>  -11.4474    1.0000 </r>
       <r>  -11.2963    1.0000 </r>
       <r>  -11.1220    1.0000 </r>
       <r>  -10.9146    1.0000 </r>
       <r>  -10.8503    1.0000 </r>
       <r>  -10.5844    1.0000 </r>
       <r>  -10.5329    1.0000 </r>
       <r>  -10.2857    1.0000 </r>
       <r>  -10.2369    1.0000 </r>
       <r>  -10.1612    1.0000 </r>
       <r>  -10.0494    1.0000 </r>
       <r>   -9.8534    1.0000 </r>
       <r>   -9.8206    1.0000 </r>
       <r>   -9.6543    1.0000 </r>
       <r>   -9.6073    1.0000 </r>
       <r>   -9.5608    1.0000 </r>
       <r>   -9.5275    1.0000 </r>
       <r>   -9.3712    1.0000 </r>
       <r>   -9.3413    1.0000 </r>
       <r>   -9.2592    1.0000 </r>
       <r>   -9.1758    1.0000 </r>
       <r>   -9.0998    1.0000 </r>
       <r>   -9.0827    1.0000 </r>
       <r>   -8.8652    1.0000 </r>
       <r>   -8.7134    1.0000 </r>
       <r>   -8.6644    1.0000 </r>
       <r>   -8.5045    1.0000 </r>
       <r>   -8.4023    1.0000 </r>
       <r>   -8.2882    1.0000 </r>
       <r>   -8.1331    1.0000 </r>
       <r>   -8.0948    1.0000 </r>
       <r>   -8.0669    1.0000 </r>
       <r>   -7.9717    1.0000 </r>
       <r>   -7.8084    1.0000 </r>
       <r>   -7.6197    1.0000 </r>
       <r>   -7.3614    1.0000 </r>
       <r>   -7.3365    1.0000 </r>
       <r>   -7.2663    1.0000 </r>
       <r>   -7.1965    1.0000 </r>
       <r>   -6.9203    1.0000 </r>
       <r>   -6.8725    1.0000 </r>
       <r>   -6.6949    1.0000 </r>
       <r>   -6.5904    1.0000 </r>
       <r>   -6.3496    1.0000 </r>
       <r>   -6.1857    1.0000 </r>
       <r>   -6.0734    1.0000 </r>
       <r>   -5.9216    1.0000 </r>
       <r>   -5.7399    1.0000 </r>
       <r>   -5.6402    1.0000 </r>
       <r>   -5.3227    1.0000 </r>
       <r>   -5.1151    1.0000 </r>
       <r>   -4.9701    1.0000 </r>
       <r>   -4.9227    1.0000 </r>
       <r>   -4.2701    1.0000 </r>
       <r>   -4.1690    1.0000 </r>
       <r>   -3.3368    1.0000 </r>
       <r>   -3.1350    0.9996 </r>
       <r>   -2.8042    0.0000 </r>
       <r>   -1.5916    0.0000 </r>
       <r>   -1.4238    0.0000 </r>
       <r>   -0.8400    0.0000 </r>
       <r>   -0.8194    0.0000 </r>
       <r>   -0.7062    0.0000 </r>
       <r>   -0.6681    0.0000 </r>
       <r>   -0.1287    0.0000 </r>
       <r>   -0.0068    0.0000 </r>
       <r>    0.2926    0.0000 </r>
       <r>    0.7042    0.0000 </r>
       <r>    0.7270    0.0000 </r>
       <r>    1.1009    0.0000 </r>
       <r>    1.1744    0.0000 </r>
       <r>    1.3649    0.0000 </r>
       <r>    1.4637    0.0000 </r>
       <r>    1.5574    0.0000 </r>
       <r>    1.5772    0.0000 </r>
       <r>    1.7167    0.0000 </r>
       <r>    1.8253    0.0000 </r>
       <r>    2.1700    0.0000 </r>
       <r>    2.3347    0.0000 </r>
       <r>    2.3949    0.0000 </r>
       <r>    2.6127    0.0000 </r>
       <r>    2.7627    0.0000 </r>
       <r>    2.8342    0.0000 </r>
       <r>    3.2026    0.0000 </r>
       <r>    3.5966    0.0000 </r>
       <r>    4.1820    0.0000 </r>
      </set>
      <set comment="kpoint 5">
       <r>  -31.7414    1.0000 </r>
       <r>  -22.0806    1.0000 </r>
       <r>  -22.0078    1.0000 </r>
       <r>  -21.8019    1.0000 </r>
       <r>  -21.1723    1.0000 </r>
       <r>  -21.1507    1.0000 </r>
       <r>  -20.8676    1.0000 </r>
       <r>  -20.4135    1.0000 </r>
       <r>  -20.3391    1.0000 </r>
       <r>  -20.1722    1.0000 </r>
       <r>  -20.1505    1.0000 </r>
       <r>  -20.1431    1.0000 </r>
       <r>  -19.5672    1.0000 </r>
       <r>  -18.8266    1.0000 </r>
       <r>  -18.6750    1.0000 </r>
       <r>  -18.3727    1.0000 </r>
       <r>  -18.3490    1.0000 </r>
       <r>  -18.3366    1.0000 </r>
       <r>  -17.9303    1.0000 </r>
       <r>  -17.8017    1.0000 </r>
       <r>  -17.6018    1.0000 </r>
       <r>  -17.2617    1.0000 </r>
       <r>  -17.1533    1.0000 </r>
       <r>  -17.1209    1.0000 </r>
       <r>  -16.5434    1.0000 </r>
       <r>  -16.4380    1.0000 </r>
       <r>  -16.2846    1.0000 </r>
       <r>  -15.8087    1.0000 </r>
       <r>  -15.6291    1.0000 </r>
       <r>  -15.1756    1.0000 </r>
       <r>  -14.9700    1.0000 </r>
       <r>  -14.6528    1.0000 </r>
       <r>  -13.9604    1.0000 </r>
       <r>  -13.9395    1.0000 </r>
       <r>  -13.9248    1.0000 </r>
       <r>  -13.8739    1.0000 </r>
       <r>  -13.8641    1.0000 </r>
       <r>  -13.7922    1.0000 </r>
       <r>  -13.6750    1.0000 </r>
       <r>  -13.4951    1.0000 </r>
       <r>  -13.0381    1.0000 </r>
       <r>  -12.4748    1.0000 </r>
       <r>  -12.2542    1.0000 </r>
       <r>  -12.0716    1.0000 </r>
       <r>  -11.8237    1.0000 </r>
       <r>  -11.7738    1.0000 </r>
       <r>  -11.5635    1.0000 </r>
       <r>  -11.5459    1.0000 </r>
       <r>  -11.5229    1.0000 </r>
       <r>  -10.9294    1.0000 </r>
       <r>  -10.8178    1.0000 </r>
       <r>  -10.5308    1.0000 </r>
       <r>  -10.2062    1.0000 </r>
       <r>  -10.2040    1.0000 </r>
       <r>  -10.1943    1.0000 </r>
       <r>  -10.0948    1.0000 </r>
       <r>  -10.0531    1.0000 </r>
       <r>  -10.0222    1.0000 </r>
       <r>   -9.9031    1.0000 </r>
       <r>   -9.7516    1.0000 </r>
       <r>   -9.7482    1.0000 </r>
       <r>   -9.5646    1.0000 </r>
       <r>   -9.4411    1.0000 </r>
       <r>   -9.4078    1.0000 </r>
       <r>   -9.1994    1.0000 </r>
       <r>   -9.0451    1.0000 </r>
       <r>   -9.0340    1.0000 </r>
       <r>   -8.9032    1.0000 </r>
       <r>   -8.8849    1.0000 </r>
       <r>   -8.6872    1.0000 </r>
       <r>   -8.6374    1.0000 </r>
       <r>   -8.6356    1.0000 </r>
       <r>   -8.6241    1.0000 </r>
       <r>   -8.5834    1.0000 </r>
       <r>   -8.3744    1.0000 </r>
       <r>   -8.2523    1.0000 </r>
       <r>   -8.1649    1.0000 </r>
       <r>   -8.0362    1.0000 </r>
       <r>   -7.9841    1.0000 </r>
       <r>   -7.8797    1.0000 </r>
       <r>   -7.8581    1.0000 </r>
       <r>   -7.8548    1.0000 </r>
       <r>   -7.2250    1.0000 </r>
       <r>   -7.1852    1.0000 </r>
       <r>   -7.1291    1.0000 </r>
       <r>   -6.8838    1.0000 </r>
       <r>   -6.7213    1.0000 </r>
       <r>   -6.6130    1.0000 </r>
       <r>   -6.4602    1.0000 </r>
       <r>   -6.2694    1.0000 </r>
       <r>   -6.1034    1.0000 </r>
       <r>   -5.9167    1.0000 </r>
       <r>   -5.9112    1.0000 </r>
       <r>   -5.8978    1.0000 </r>
       <r>   -5.4522    1.0000 </r>
       <r>   -5.4255    1.0000 </r>
       <r>   -5.1222    1.0000 </r>
       <r>   -5.0142    1.0000 </r>
       <r>   -4.9804    1.0000 </r>
       <r>   -4.9579    1.0000 </r>
       <r>   -3.7319    1.0000 </r>
       <r>   -3.4587    1.0000 </r>
       <r>   -3.2793    1.0000 </r>
       <r>   -2.3872    0.0000 </r>
       <r>   -2.2244    0.0000 </r>
       <r>   -0.9287    0.0000 </r>
       <r>   -0.8823    0.0000 </r>
       <r>   -0.8679    0.0000 </r>
       <r>   -0.5385    0.0000 </r>
       <r>   -0.2645    0.0000 </r>
       <r>   -0.2115    0.0000 </r>
       <r>    0.2518    0.0000 </r>
       <r>    0.2581    0.0000 </r>
       <r>    0.2604    0.0000 </r>
       <r>    0.5987    0.0000 </r>
       <r>    0.7916    0.0000 </r>
       <r>    0.9481    0.0000 </r>
       <r>    0.9735    0.0000 </r>
       <r>    1.0612    0.0000 </r>
       <r>    1.7333    0.0000 </r>
       <r>    1.7452    0.0000 </r>
       <r>    1.7667    0.0000 </r>
       <r>    1.8251    0.0000 </r>
       <r>    2.1127    0.0000 </r>
       <r>    2.1159    0.0000 </r>
       <r>    2.1201    0.0000 </r>
       <r>    2.2463    0.0000 </r>
       <r>    2.2479    0.0000 </r>
       <r>    2.3610    0.0000 </r>
       <r>    2.9991    0.0000 </r>
       <r>    3.0113    0.0000 </r>
       <r>    3.0356    0.0000 </r>
      </set>
     </set>
    </set>
   </array>
  </eigenvalues>
  <separator name="orbital magnetization" >
   <v name="MAGDIPOLOUT">      0.00000000      0.00000000      0.00000000</v>
  </separator>
  <dos>
   <i name="efermi">     -3.01699858 </i>
   <total>
    <array>
     <dimension dim="1">gridpoints</dimension>
     <dimension dim="2">spin</dimension>
     <field>energy</field>
     <field>total</field>
     <field>integrated</field>
     <set>
      <set comment="spin 1">
       <r>   -33.5375     0.0000     0.0000 </r>
       <r>   -33.4058     0.0000     0.0000 </r>
       <r>   -33.2741     0.0000     0.0000 </r>
       <r>   -33.1424     0.0000     0.0000 </r>
       <r>   -33.0107     0.0000     0.0000 </r>
       <r>   -32.8789     0.0000     0.0000 </r>
       <r>   -32.7472     0.0000     0.0000 </r>
       <r>   -32.6155     0.0000     0.0000 </r>
       <r>   -32.4838     0.0000     0.0000 </r>
       <r>   -32.3521     0.0000     0.0000 </r>
       <r>   -32.2203     0.0000     0.0000 </r>
       <r>   -32.0886     0.0000     0.0000 </r>
       <r>   -31.9569     0.0000     0.0000 </r>
       <r>   -31.8252     0.1343     0.0177 </r>
       <r>   -31.6935    13.7140     1.8241 </r>
       <r>   -31.5617     1.3355     2.0000 </r>
       <r>   -31.4300     0.0000     2.0000 </r>
       <r>   -31.2983     0.0000     2.0000 </r>
       <r>   -31.1666     0.0000     2.0000 </r>
       <r>   -31.0349     0.0000     2.0000 </r>
       <r>   -30.9031     0.0000     2.0000 </r>
       <r>   -30.7714     0.0000     2.0000 </r>
       <r>   -30.6397     0.0000     2.0000 </r>
       <r>   -30.5080     0.0000     2.0000 </r>
       <r>   -30.3763     0.0000     2.0000 </r>
       <r>   -30.2446     0.0000     2.0000 </r>
       <r>   -30.1128     0.0000     2.0000 </r>
       <r>   -29.9811     0.0000     2.0000 </r>
       <r>   -29.8494     0.0000     2.0000 </r>
       <r>   -29.7177     0.0000     2.0000 </r>
       <r>   -29.5860     0.0000     2.0000 </r>
       <r>   -29.4542     0.0000     2.0000 </r>
       <r>   -29.3225     0.0000     2.0000 </r>
       <r>   -29.1908     0.0000     2.0000 </r>
       <r>   -29.0591     0.0000     2.0000 </r>
       <r>   -28.9274     0.0000     2.0000 </r>
       <r>   -28.7956     0.0000     2.0000 </r>
       <r>   -28.6639     0.0000     2.0000 </r>
       <r>   -28.5322     0.0000     2.0000 </r>
       <r>   -28.4005     0.0000     2.0000 </r>
       <r>   -28.2688     0.0000     2.0000 </r>
       <r>   -28.1370     0.0000     2.0000 </r>
       <r>   -28.0053     0.0000     2.0000 </r>
       <r>   -27.8736     0.0000     2.0000 </r>
       <r>   -27.7419     0.0000     2.0000 </r>
       <r>   -27.6102     0.0000     2.0000 </r>
       <r>   -27.4785     0.0000     2.0000 </r>
       <r>   -27.3467     0.0000     2.0000 </r>
       <r>   -27.2150     0.0000     2.0000 </r>
       <r>   -27.0833     0.0000     2.0000 </r>
       <r>   -26.9516     0.0000     2.0000 </r>
       <r>   -26.8199     0.0000     2.0000 </r>
       <r>   -26.6881     0.0000     2.0000 </r>
       <r>   -26.5564     0.0000     2.0000 </r>
       <r>   -26.4247     0.0000     2.0000 </r>
       <r>   -26.2930     0.0000     2.0000 </r>
       <r>   -26.1613     0.0000     2.0000 </r>
       <r>   -26.0295     0.0000     2.0000 </r>
       <r>   -25.8978     0.0000     2.0000 </r>
       <r>   -25.7661     0.0000     2.0000 </r>
       <r>   -25.6344     0.0000     2.0000 </r>
       <r>   -25.5027     0.0000     2.0000 </r>
       <r>   -25.3709     0.0000     2.0000 </r>
       <r>   -25.2392     0.0000     2.0000 </r>
       <r>   -25.1075     0.0000     2.0000 </r>
       <r>   -24.9758     0.0000     2.0000 </r>
       <r>   -24.8441     0.0000     2.0000 </r>
       <r>   -24.7124     0.0000     2.0000 </r>
       <r>   -24.5806     0.0000     2.0000 </r>
       <r>   -24.4489     0.0000     2.0000 </r>
       <r>   -24.3172     0.0000     2.0000 </r>
       <r>   -24.1855     0.0000     2.0000 </r>
       <r>   -24.0538     0.0000     2.0000 </r>
       <r>   -23.9220     0.0000     2.0000 </r>
       <r>   -23.7903     0.0000     2.0000 </r>
       <r>   -23.6586     0.0000     2.0000 </r>
       <r>   -23.5269     0.0000     2.0000 </r>
       <r>   -23.3952     0.0000     2.0000 </r>
       <r>   -23.2634     0.0000     2.0000 </r>
       <r>   -23.1317     0.0000     2.0000 </r>
       <r>   -23.0000     0.0000     2.0000 </r>
       <r>   -22.8683     0.0000     2.0000 </r>
       <r>   -22.7366     0.0000     2.0000 </r>
       <r>   -22.6048     0.0000     2.0000 </r>
       <r>   -22.4731     0.0000     2.0000 </r>
       <r>   -22.3414     0.0398     2.0052 </r>
       <r>   -22.2097     4.4162     2.5869 </r>
       <r>   -22.0780     9.2104     3.8001 </r>
       <r>   -21.9463     4.9044     4.4461 </r>
       <r>   -21.8145    10.7163     5.8577 </r>
       <r>   -21.6828     5.5316     6.5863 </r>
       <r>   -21.5511     7.6792     7.5978 </r>
       <r>   -21.4194    12.7555     9.2779 </r>
       <r>   -21.2877     5.4775     9.9994 </r>
       <r>   -21.1559     3.7845    10.4979 </r>
       <r>   -21.0242     9.2322    11.7140 </r>
       <r>   -20.8925    10.8065    13.1374 </r>
       <r>   -20.7608     9.9964    14.4541 </r>
       <r>   -20.6291     8.3353    15.5520 </r>
       <r>   -20.4973     0.2052    15.5791 </r>
       <r>   -20.3656    13.1698    17.3138 </r>
       <r>   -20.2339     3.9213    17.8303 </r>
       <r>   -20.1022    18.6132    20.2820 </r>
       <r>   -19.9705     1.2472    20.4463 </r>
       <r>   -19.8387     3.6206    20.9232 </r>
       <r>   -19.7070    13.9457    22.7601 </r>
       <r>   -19.5753     8.4571    23.8740 </r>
       <r>   -19.4436     6.0109    24.6658 </r>
       <r>   -19.3119     6.9546    25.5818 </r>
       <r>   -19.1802    13.9762    27.4228 </r>
       <r>   -19.0484     7.5783    28.4210 </r>
       <r>   -18.9167     4.6853    29.0381 </r>
       <r>   -18.7850     5.2140    29.7249 </r>
       <r>   -18.6533     5.2858    30.4212 </r>
       <r>   -18.5216    13.8226    32.2419 </r>
       <r>   -18.3898    11.4035    33.7439 </r>
       <r>   -18.2581     8.6292    34.8805 </r>
       <r>   -18.1264     4.9490    35.5324 </r>
       <r>   -17.9947    15.2096    37.5358 </r>
       <r>   -17.8630     4.7981    38.1678 </r>
       <r>   -17.7312     3.7100    38.6565 </r>
       <r>   -17.5995     5.9799    39.4442 </r>
       <r>   -17.4678    15.7314    41.5163 </r>
       <r>   -17.3361     4.1377    42.0613 </r>
       <r>   -17.2044    21.3346    44.8715 </r>
       <r>   -17.0726     6.8059    45.7679 </r>
       <r>   -16.9409     3.4701    46.2250 </r>
       <r>   -16.8092     8.9392    47.4025 </r>
       <r>   -16.6775     4.1812    47.9532 </r>
       <r>   -16.5458     8.7650    49.1078 </r>
       <r>   -16.4141     8.8927    50.2791 </r>
       <r>   -16.2823     3.0441    50.6801 </r>
       <r>   -16.1506     9.3539    51.9122 </r>
       <r>   -16.0189     5.8879    52.6877 </r>
       <r>   -15.8872    12.9925    54.3991 </r>
       <r>   -15.7555    11.8871    55.9648 </r>
       <r>   -15.6237     2.1601    56.2493 </r>
       <r>   -15.4920     4.2459    56.8086 </r>
       <r>   -15.3603     2.7042    57.1648 </r>
       <r>   -15.2286    10.2343    58.5129 </r>
       <r>   -15.0969    22.1168    61.4261 </r>
       <r>   -14.9651     4.6581    62.0396 </r>
       <r>   -14.8334    11.5160    63.5565 </r>
       <r>   -14.7017    10.3493    64.9197 </r>
       <r>   -14.5700     6.3819    65.7603 </r>
       <r>   -14.4383    15.9795    67.8651 </r>
       <r>   -14.3065     4.3980    68.4444 </r>
       <r>   -14.1748     1.1268    68.5929 </r>
       <r>   -14.0431     3.9889    69.1183 </r>
       <r>   -13.9114    10.2540    70.4689 </r>
       <r>   -13.7797    17.0190    72.7106 </r>
       <r>   -13.6480    17.4645    75.0111 </r>
       <r>   -13.5162     1.6879    75.2334 </r>
       <r>   -13.3845     2.4430    75.5552 </r>
       <r>   -13.2528     0.5651    75.6296 </r>
       <r>   -13.1211    11.3163    77.1202 </r>
       <r>   -12.9894    13.8933    78.9502 </r>
       <r>   -12.8576    20.3862    81.6354 </r>
       <r>   -12.7259     1.0811    81.7778 </r>
       <r>   -12.5942     5.1475    82.4559 </r>
       <r>   -12.4625    17.3853    84.7458 </r>
       <r>   -12.3308    10.7944    86.1676 </r>
       <r>   -12.1990     3.5883    86.6403 </r>
       <r>   -12.0673     3.3470    87.0812 </r>
       <r>   -11.9356    11.9624    88.6568 </r>
       <r>   -11.8039     3.8053    89.1581 </r>
       <r>   -11.6722    16.3085    91.3062 </r>
       <r>   -11.5404    17.4950    93.6106 </r>
       <r>   -11.4087    13.3943    95.3749 </r>
       <r>   -11.2770     8.5345    96.4990 </r>
       <r>   -11.1453     5.5475    97.2298 </r>
       <r>   -11.0136     7.5790    98.2281 </r>
       <r>   -10.8819    13.3996    99.9930 </r>
       <r>   -10.7501    16.5665   102.1752 </r>
       <r>   -10.6184     2.1646   102.4603 </r>
       <r>   -10.4867    20.5467   105.1667 </r>
       <r>   -10.3550     3.7678   105.6630 </r>
       <r>   -10.2233    25.1498   108.9757 </r>
       <r>   -10.0915    25.1541   112.2890 </r>
       <r>    -9.9598    18.0457   114.6659 </r>
       <r>    -9.8281    15.3616   116.6893 </r>
       <r>    -9.6964    17.0940   118.9409 </r>
       <r>    -9.5647    28.1253   122.6456 </r>
       <r>    -9.4329    20.2456   125.3123 </r>
       <r>    -9.3012    27.7009   128.9610 </r>
       <r>    -9.1695    23.3867   132.0415 </r>
       <r>    -9.0378    28.6924   135.8208 </r>
       <r>    -8.9061    20.3906   138.5067 </r>
       <r>    -8.7743    16.7986   140.7194 </r>
       <r>    -8.6426    23.9979   143.8804 </r>
       <r>    -8.5109    16.9932   146.1187 </r>
       <r>    -8.3792    16.5573   148.2996 </r>
       <r>    -8.2475    15.2574   150.3093 </r>
       <r>    -8.1158    16.4910   152.4815 </r>
       <r>    -7.9840    28.3591   156.2169 </r>
       <r>    -7.8523    16.0880   158.3360 </r>
       <r>    -7.7206    15.9195   160.4329 </r>
       <r>    -7.5889     8.2908   161.5249 </r>
       <r>    -7.4572     1.9562   161.7826 </r>
       <r>    -7.3254    18.7369   164.2506 </r>
       <r>    -7.1937    32.0006   168.4657 </r>
       <r>    -7.0620    14.9079   170.4294 </r>
       <r>    -6.9303     4.8923   171.0738 </r>
       <r>    -6.7986    18.8504   173.5567 </r>
       <r>    -6.6668    13.1074   175.2832 </r>
       <r>    -6.5351    15.7263   177.3547 </r>
       <r>    -6.4034     7.0432   178.2824 </r>
       <r>    -6.2717    12.7610   179.9633 </r>
       <r>    -6.1400    15.2710   181.9748 </r>
       <r>    -6.0082    13.4849   183.7510 </r>
       <r>    -5.8765    20.5940   186.4636 </r>
       <r>    -5.7448     7.7168   187.4800 </r>
       <r>    -5.6131    13.5704   189.2675 </r>
       <r>    -5.4814     3.0709   189.6720 </r>
       <r>    -5.3497     8.0481   190.7321 </r>
       <r>    -5.2179     8.4001   191.8386 </r>
       <r>    -5.0862    12.1806   193.4430 </r>
       <r>    -4.9545    18.8270   195.9229 </r>
       <r>    -4.8228    14.2158   197.7953 </r>
       <r>    -4.6911     3.1722   198.2132 </r>
       <r>    -4.5593     0.0686   198.2222 </r>
       <r>    -4.4276     0.0001   198.2222 </r>
       <r>    -4.2959     3.4295   198.6740 </r>
       <r>    -4.1642    17.2940   200.9519 </r>
       <r>    -4.0325     4.5822   201.5555 </r>
       <r>    -3.9007     0.0006   201.5556 </r>
       <r>    -3.7690     0.4957   201.6208 </r>
       <r>    -3.6373     2.8659   201.9983 </r>
       <r>    -3.5056     0.3236   202.0410 </r>
       <r>    -3.3739     4.4891   202.6323 </r>
       <r>    -3.2422    12.2683   204.2483 </r>
       <r>    -3.1104    10.9426   205.6896 </r>
       <r>    -2.9787     2.4225   206.0087 </r>
       <r>    -2.8470     2.7164   206.3665 </r>
       <r>    -2.7153     8.9664   207.5475 </r>
       <r>    -2.5836     0.0609   207.5556 </r>
       <r>    -2.4518     0.1136   207.5705 </r>
       <r>    -2.3201     3.1742   207.9886 </r>
       <r>    -2.1884     2.9392   208.3758 </r>
       <r>    -2.0567     0.5213   208.4444 </r>
       <r>    -1.9250     0.0000   208.4444 </r>
       <r>    -1.7932     0.0000   208.4444 </r>
       <r>    -1.6615     0.2394   208.4760 </r>
       <r>    -1.5298     9.5969   209.7401 </r>
       <r>    -1.3981    12.8917   211.4382 </r>
       <r>    -1.2664     2.5783   211.7778 </r>
       <r>    -1.1346     0.0001   211.7778 </r>
       <r>    -1.0029     1.3199   211.9516 </r>
       <r>    -0.8712    11.5459   213.4725 </r>
       <r>    -0.7395    22.7103   216.4638 </r>
       <r>    -0.6078    18.0830   218.8457 </r>
       <r>    -0.4761     5.2109   219.5321 </r>
       <r>    -0.3443     0.2188   219.5609 </r>
       <r>    -0.2126     4.8315   220.1973 </r>
       <r>    -0.0809    11.2990   221.6856 </r>
       <r>     0.0508    10.2917   223.0412 </r>
       <r>     0.1825     0.7262   223.1369 </r>
       <r>     0.3143    16.7880   225.3482 </r>
       <r>     0.4460     7.1475   226.2896 </r>
       <r>     0.5777     3.2405   226.7165 </r>
       <r>     0.7094    11.8421   228.2763 </r>
       <r>     0.8411    16.1086   230.3981 </r>
       <r>     0.9729     6.2801   231.2253 </r>
       <r>     1.1046    11.2970   232.7134 </r>
       <r>     1.2363    14.5318   234.6275 </r>
       <r>     1.3680     8.7616   235.7815 </r>
       <r>     1.4997    14.9714   237.7536 </r>
       <r>     1.6315    23.0447   240.7890 </r>
       <r>     1.7632    16.8067   243.0028 </r>
       <r>     1.8949    26.1372   246.4455 </r>
       <r>     2.0266     8.3131   247.5405 </r>
       <r>     2.1583    17.0785   249.7901 </r>
       <r>     2.2900    25.9818   253.2124 </r>
       <r>     2.4218    28.1942   256.9261 </r>
       <r>     2.5535     6.6581   257.8031 </r>
       <r>     2.6852     6.6049   258.6731 </r>
       <r>     2.8169     9.9703   259.9864 </r>
       <r>     2.9486     3.8867   260.4983 </r>
       <r>     3.0804     9.2453   261.7161 </r>
       <r>     3.2121     2.9012   262.0983 </r>
       <r>     3.3438     4.2959   262.6641 </r>
       <r>     3.4755     0.0205   262.6668 </r>
       <r>     3.6072     3.0311   263.0661 </r>
       <r>     3.7390     3.7133   263.5552 </r>
       <r>     3.8707     0.0029   263.5556 </r>
       <r>     4.0024     0.0000   263.5556 </r>
       <r>     4.1341     0.2961   263.5946 </r>
       <r>     4.2658     3.0482   263.9961 </r>
       <r>     4.3976     0.0299   264.0000 </r>
       <r>     4.5293     0.0000   264.0000 </r>
       <r>     4.6610     0.0000   264.0000 </r>
       <r>     4.7927     0.0000   264.0000 </r>
       <r>     4.9244     0.0000   264.0000 </r>
       <r>     5.0561     0.0000   264.0000 </r>
       <r>     5.1879     0.0000   264.0000 </r>
       <r>     5.3196     0.0000   264.0000 </r>
       <r>     5.4513     0.0000   264.0000 </r>
       <r>     5.5830     0.0000   264.0000 </r>
       <r>     5.7147     0.0000   264.0000 </r>
       <r>     5.8465     0.0000   264.0000 </r>
       <r>     5.9782     0.0000   264.0000 </r>
      </set>
     </set>
    </array>
   </total>
  </dos>
 </calculation>
 <structure name="finalpos" >
  <crystal>
   <varray name="basis" >
    <v>      12.30000019       0.00000000       0.00000000 </v>
    <v>       6.15000080      10.65211222       0.00000000 </v>
    <v>       0.00000000       0.00000000      20.00000000 </v>
   </varray>
   <i name="volume">   2620.41964732 </i>
   <varray name="rec_basis" >
    <v>       0.08130081      -0.04693905       0.00000000 </v>
    <v>       0.00000000       0.09387809       0.00000000 </v>
    <v>       0.00000000       0.00000000       0.05000000 </v>
   </varray>
  </crystal>
  <varray name="positions" >
   <v>       0.00000000       0.00000000       0.41799748 </v>
   <v>       0.20000000       0.00000000       0.41799748 </v>
   <v>       0.40000000       0.00000000       0.41799748 </v>
   <v>       0.60000000       0.00000000       0.41799748 </v>
   <v>       0.80000000       0.00000000       0.41799748 </v>
   <v>       0.00000000       0.20000000       0.41799748 </v>
   <v>       0.20000000       0.20000000       0.41799748 </v>
   <v>       0.40000000       0.20000000       0.41799748 </v>
   <v>       0.60000000       0.20000000       0.41799748 </v>
   <v>       0.80000000       0.20000000       0.41799748 </v>
   <v>       0.00000000       0.40000000       0.41799748 </v>
   <v>       0.20000000       0.40000000       0.41799748 </v>
   <v>       0.40000000       0.40000000       0.41799748 </v>
   <v>       0.60000000       0.40000000       0.41799748 </v>
   <v>       0.80000000       0.40000000       0.41799748 </v>
   <v>       0.00000000       0.60000000       0.41799748 </v>
   <v>       0.20000000       0.60000000       0.41799748 </v>
   <v>       0.40000000       0.60000000       0.41799748 </v>
   <v>       0.60000000       0.60000000       0.41799748 </v>
   <v>       0.80000000       0.60000000       0.41799748 </v>
   <v>       0.00000000       0.80000000       0.41799748 </v>
   <v>       0.20000000       0.80000000       0.41799748 </v>
   <v>       0.40000000       0.80000000       0.41799748 </v>
   <v>       0.60000000       0.80000000       0.41799748 </v>
   <v>       0.80000000       0.80000000       0.41799748 </v>
   <v>       0.06666667       0.06666660       0.41800609 </v>
   <v>       0.26666667       0.06666660       0.41800609 </v>
   <v>       0.46666667       0.06666660       0.41750609 </v>
   <v>       0.66666667       0.06666660       0.41800609 </v>
   <v>       0.86666667       0.06666660       0.41800609 </v>
   <v>       0.06666667       0.26666660       0.41800609 </v>
   <v>       0.26666667       0.26666660       0.41800609 </v>
   <v>       0.46666667       0.26666660       0.41800609 </v>
   <v>       0.66666667       0.26666660       0.41800609 </v>
   <v>       0.86666667       0.26666660       0.41800609 </v>
   <v>       0.06666667       0.46666660       0.41800609 </v>
   <v>       0.26666667       0.46666660       0.41800609 </v>
   <v>       0.46666667       0.46666660       0.41800609 </v>
   <v>       0.66666667       0.46666660       0.41800609 </v>
   <v>       0.86666667       0.46666660       0.41800609 </v>
   <v>       0.06666667       0.66666660       0.41800609 </v>
   <v>       0.26666667       0.66666660       0.41800609 </v>
   <v>       0.46666667       0.66666660       0.41800609 </v>
   <v>       0.66666667       0.66666660       0.41800609 </v>
   <v>       0.86666667       0.66666660       0.41800609 </v>
   <v>       0.06666667       0.86666660       0.41800609 </v>
   <v>       0.26666667       0.86666660       0.41800609 </v>
   <v>       0.46666667       0.86666660       0.41800609 </v>
   <v>       0.66666667       0.86666660       0.41800609 </v>
   <v>       0.86666667       0.86666660       0.41800609 </v>
   <v>       0.40000000       0.40000000       0.46800609 </v>
  </varray>
  <varray name="velocities" >
   <v>       0.00000000       0.00000000       0.00000000 </v>
   <v>       0.00000000       0.00000000       0.00000000 </v>
   <v>       0.00000000       0.00000000       0.00000000 </v>
   <v>       0.00000000       0.00000000       0.00000000 </v>
   <v>       0.00000000       0.00000000       0.00000000 </v>
   <v>       0.00000000       0.00000000       0.00000000 </v>
   <v>       0.00000000       0.00000000       0.00000000 </v>
   <v>       0.00000000       0.00000000       0.00000000 </v>
   <v>       0.00000000       0.00000000       0.00000000 </v>
   <v>       0.00000000       0.00000000       0.00000000 </v>
   <v>       0.00000000       0.00000000       0.00000000 </v>
   <v>       0.00000000       0.00000000       0.00000000 </v>
   <v>       0.00000000       0.00000000       0.00000000 </v>
   <v>       0.00000000       0.00000000       0.00000000 </v>
   <v>       0.00000000       0.00000000       0.00000000 </v>
   <v>       0.00000000       0.00000000       0.00000000 </v>
   <v>       0.00000000       0.00000000       0.00000000 </v>
   <v>       0.00000000       0.00000000       0.00000000 </v>
   <v>       0.00000000       0.00000000       0.00000000 </v>
   <v>       0.00000000       0.00000000       0.00000000 </v>
   <v>       0.00000000       0.00000000       0.00000000 </v>
   <v>       0.00000000       0.00000000       0.00000000 </v>
   <v>       0.00000000       0.00000000       0.00000000 </v>
   <v>       0.00000000       0.00000000       0.00000000 </v>
   <v>       0.00000000       0.00000000       0.00000000 </v>
   <v>       0.00000000       0.00000000       0.00000000 </v>
   <v>       0.00000000       0.00000000       0.00000000 </v>
   <v>       0.00000000       0.00000000       0.00000000 </v>
   <v>       0.00000000       0.00000000       0.00000000 </v>
   <v>       0.00000000       0.00000000       0.00000000 </v>
   <v>       0.00000000       0.00000000       0.00000000 </v>
   <v>       0.00000000       0.00000000       0.00000000 </v>
   <v>       0.00000000       0.00000000       0.00000000 </v>
   <v>       0.00000000       0.00000000       0.00000000 </v>
   <v>       0.00000000       0.00000000       0.00000000 </v>
   <v>       0.00000000       0.00000000       0.00000000 </v>
   <v>       0.00000000       0.00000000       0.00000000 </v>
   <v>       0.00000000       0.00000000       0.00000000 </v>
   <v>       0.00000000       0.00000000       0.00000000 </v>
   <v>       0.00000000       0.00000000       0.00000000 </v>
   <v>       0.00000000       0.00000000       0.00000000 </v>
   <v>       0.00000000       0.00000000       0.00000000 </v>
   <v>       0.00000000       0.00000000       0.00000000 </v>
   <v>       0.00000000       0.00000000       0.00000000 </v>
   <v>       0.00000000       0.00000000       0.00000000 </v>
   <v>       0.00000000       0.00000000       0.00000000 </v>
   <v>       0.00000000       0.00000000       0.00000000 </v>
   <v>       0.00000000       0.00000000       0.00000000 </v>
   <v>       0.00000000       0.00000000       0.00000000 </v>
   <v>       0.00000000       0.00000000       0.00000000 </v>
   <v>       0.00000000       0.00000000       0.00000000 </v>
  </varray>
 </structure>
</modeling>
