       N       E                     dE             d eps       ncg     rms          rms(c)
DAV:   1     0.126104297833E+05    0.12610E+05   -0.17426E+05 49196   0.260E+03
DAV:   2     0.226231229007E+04   -0.10348E+05   -0.99101E+04 43760   0.685E+02
DAV:   3    -0.349097312189E+03   -0.26114E+04   -0.24078E+04 50516   0.262E+02
DAV:   4    -0.711173584222E+03   -0.36208E+03   -0.34752E+03 46520   0.109E+02
DAV:   5    -0.727630098111E+03   -0.16457E+02   -0.16400E+02 48376   0.252E+01
RMM:   6    -0.728271369559E+03   -0.64127E+00   -0.64127E+00 58791   0.481E+00
RMM:   7    -0.728322729229E+03   -0.51360E-01   -0.77607E-01 70290   0.123E+00
RMM:   8    -0.728300072739E+03    0.22656E-01   -0.43759E-02 63165   0.549E-01
RMM:   9    -0.728301000039E+03   -0.92730E-03   -0.11153E-02 69655   0.135E-01
RMM:  10    -0.728300881863E+03    0.11818E-03   -0.10069E-03 62216   0.486E-02
RMM:  11    -0.728300891509E+03   -0.96460E-05   -0.27516E-04 58426   0.182E-02
RMM:  12    -0.728300885994E+03    0.55153E-05   -0.28292E-05 45942   0.898E-03
RMM:  13    -0.728300886431E+03   -0.43736E-06   -0.79722E-06 41939   0.519E-03
   1 F= -.72830089E+03 E0= -.72830171E+03  d E =0.246615E-02
