  51  51   0   0
  0.5138078E+02  0.1230000E-08  0.1230000E-08  0.2000000E-08  0.5000000E-15
  1.000000000000000E-004
  CAR 
                                         
      5.97417333    -33.53609235  301     -3.01708127      1.00000000
    -33.536  0.0000E+00  0.0000E+00
    -33.404  0.0000E+00  0.0000E+00
    -33.273  0.0000E+00  0.0000E+00
    -33.141  0.0000E+00  0.0000E+00
    -33.009  0.0000E+00  0.0000E+00
    -32.878  0.0000E+00  0.0000E+00
    -32.746  0.0000E+00  0.0000E+00
    -32.614  0.0000E+00  0.0000E+00
    -32.482  0.0000E+00  0.0000E+00
    -32.351  0.0000E+00  0.0000E+00
    -32.219  0.0000E+00  0.0000E+00
    -32.087  0.0000E+00  0.0000E+00
    -31.956  0.8213E-08  0.1082E-08
    -31.824  0.1344E+00  0.1770E-01
    -31.692  0.1372E+02  0.1824E+01
    -31.561  0.1336E+01  0.2000E+01
    -31.429  0.2891E-05  0.2000E+01
    -31.297  0.0000E+00  0.2000E+01
    -31.165  0.0000E+00  0.2000E+01
    -31.034  0.0000E+00  0.2000E+01
    -30.902  0.0000E+00  0.2000E+01
    -30.770  0.0000E+00  0.2000E+01
    -30.639  0.0000E+00  0.2000E+01
    -30.507  0.0000E+00  0.2000E+01
    -30.375  0.0000E+00  0.2000E+01
    -30.244  0.0000E+00  0.2000E+01
    -30.112  0.0000E+00  0.2000E+01
    -29.980  0.0000E+00  0.2000E+01
    -29.848  0.0000E+00  0.2000E+01
    -29.717  0.0000E+00  0.2000E+01
    -29.585  0.0000E+00  0.2000E+01
    -29.453  0.0000E+00  0.2000E+01
    -29.322  0.0000E+00  0.2000E+01
    -29.190  0.0000E+00  0.2000E+01
    -29.058  0.0000E+00  0.2000E+01
    -28.927  0.0000E+00  0.2000E+01
    -28.795  0.0000E+00  0.2000E+01
    -28.663  0.0000E+00  0.2000E+01
    -28.531  0.0000E+00  0.2000E+01
    -28.400  0.0000E+00  0.2000E+01
    -28.268  0.0000E+00  0.2000E+01
    -28.136  0.0000E+00  0.2000E+01
    -28.005  0.0000E+00  0.2000E+01
    -27.873  0.0000E+00  0.2000E+01
    -27.741  0.0000E+00  0.2000E+01
    -27.610  0.0000E+00  0.2000E+01
    -27.478  0.0000E+00  0.2000E+01
    -27.346  0.0000E+00  0.2000E+01
    -27.214  0.0000E+00  0.2000E+01
    -27.083  0.0000E+00  0.2000E+01
    -26.951  0.0000E+00  0.2000E+01
    -26.819  0.0000E+00  0.2000E+01
    -26.688  0.0000E+00  0.2000E+01
    -26.556  0.0000E+00  0.2000E+01
    -26.424  0.0000E+00  0.2000E+01
    -26.293  0.0000E+00  0.2000E+01
    -26.161  0.0000E+00  0.2000E+01
    -26.029  0.0000E+00  0.2000E+01
    -25.897  0.0000E+00  0.2000E+01
    -25.766  0.0000E+00  0.2000E+01
    -25.634  0.0000E+00  0.2000E+01
    -25.502  0.0000E+00  0.2000E+01
    -25.371  0.0000E+00  0.2000E+01
    -25.239  0.0000E+00  0.2000E+01
    -25.107  0.0000E+00  0.2000E+01
    -24.976  0.0000E+00  0.2000E+01
    -24.844  0.0000E+00  0.2000E+01
    -24.712  0.0000E+00  0.2000E+01
    -24.580  0.0000E+00  0.2000E+01
    -24.449  0.0000E+00  0.2000E+01
    -24.317  0.0000E+00  0.2000E+01
    -24.185  0.0000E+00  0.2000E+01
    -24.054  0.0000E+00  0.2000E+01
    -23.922  0.0000E+00  0.2000E+01
    -23.790  0.0000E+00  0.2000E+01
    -23.659  0.0000E+00  0.2000E+01
    -23.527  0.0000E+00  0.2000E+01
    -23.395  0.0000E+00  0.2000E+01
    -23.263  0.0000E+00  0.2000E+01
    -23.132  0.0000E+00  0.2000E+01
    -23.000  0.0000E+00  0.2000E+01
    -22.868  0.0000E+00  0.2000E+01
    -22.737  0.0000E+00  0.2000E+01
    -22.605  0.0000E+00  0.2000E+01
    -22.473  0.9230E-08  0.2000E+01
    -22.342  0.3935E-01  0.2005E+01
    -22.210  0.4409E+01  0.2586E+01
    -22.078  0.9236E+01  0.3802E+01
    -21.946  0.4875E+01  0.4444E+01
    -21.815  0.1069E+02  0.5852E+01
    -21.683  0.5538E+01  0.6582E+01
    -21.551  0.7702E+01  0.7596E+01
    -21.420  0.1264E+02  0.9261E+01
    -21.288  0.5608E+01  0.9999E+01
    -21.156  0.3683E+01  0.1048E+02
    -21.025  0.9312E+01  0.1171E+02
    -20.893  0.1070E+02  0.1312E+02
    -20.761  0.1008E+02  0.1445E+02
    -20.629  0.8384E+01  0.1555E+02
    -20.498  0.1950E+00  0.1558E+02
    -20.366  0.1309E+02  0.1730E+02
    -20.234  0.3998E+01  0.1783E+02
    -20.103  0.1855E+02  0.2027E+02
    -19.971  0.1332E+01  0.2045E+02
    -19.839  0.3594E+01  0.2092E+02
    -19.707  0.1403E+02  0.2277E+02
    -19.576  0.8365E+01  0.2387E+02
    -19.444  0.6046E+01  0.2467E+02
    -19.312  0.6752E+01  0.2555E+02
    -19.181  0.1421E+02  0.2743E+02
    -19.049  0.7305E+01  0.2839E+02
    -18.917  0.4956E+01  0.2904E+02
    -18.786  0.5189E+01  0.2972E+02
    -18.654  0.5030E+01  0.3039E+02
    -18.522  0.1404E+02  0.3224E+02
    -18.390  0.1134E+02  0.3373E+02
    -18.259  0.8729E+01  0.3488E+02
    -18.127  0.4883E+01  0.3552E+02
    -17.995  0.1522E+02  0.3753E+02
    -17.864  0.4811E+01  0.3816E+02
    -17.732  0.3770E+01  0.3866E+02
    -17.600  0.5710E+01  0.3941E+02
    -17.469  0.1596E+02  0.4151E+02
    -17.337  0.4040E+01  0.4204E+02
    -17.205  0.2143E+02  0.4487E+02
    -17.073  0.6806E+01  0.4576E+02
    -16.942  0.3503E+01  0.4622E+02
    -16.810  0.8907E+01  0.4740E+02
    -16.678  0.4091E+01  0.4794E+02
    -16.547  0.8843E+01  0.4910E+02
    -16.415  0.8892E+01  0.5027E+02
    -16.283  0.2968E+01  0.5066E+02
    -16.152  0.9399E+01  0.5190E+02
    -16.020  0.5801E+01  0.5266E+02
    -15.888  0.1306E+02  0.5438E+02
    -15.756  0.1195E+02  0.5596E+02
    -15.625  0.2156E+01  0.5624E+02
    -15.493  0.4207E+01  0.5680E+02
    -15.361  0.2751E+01  0.5716E+02
    -15.230  0.1018E+02  0.5850E+02
    -15.098  0.2194E+02  0.6139E+02
    -14.966  0.4913E+01  0.6204E+02
    -14.835  0.1145E+02  0.6354E+02
    -14.703  0.1040E+02  0.6492E+02
    -14.571  0.6393E+01  0.6576E+02
    -14.439  0.1578E+02  0.6784E+02
    -14.308  0.4626E+01  0.6844E+02
    -14.176  0.9580E+00  0.6857E+02
    -14.044  0.4160E+01  0.6912E+02
    -13.913  0.9977E+01  0.7043E+02
    -13.781  0.1695E+02  0.7266E+02
    -13.649  0.1773E+02  0.7500E+02
    -13.518  0.1722E+01  0.7523E+02
    -13.386  0.2494E+01  0.7556E+02
    -13.254  0.5027E+00  0.7562E+02
    -13.122  0.1122E+02  0.7710E+02
    -12.991  0.1391E+02  0.7893E+02
    -12.859  0.2042E+02  0.8162E+02
    -12.727  0.1193E+01  0.8178E+02
    -12.596  0.4689E+01  0.8240E+02
    -12.464  0.1778E+02  0.8474E+02
    -12.332  0.1080E+02  0.8616E+02
    -12.201  0.3640E+01  0.8664E+02
    -12.069  0.3094E+01  0.8705E+02
    -11.937  0.1222E+02  0.8866E+02
    -11.805  0.3588E+01  0.8913E+02
    -11.674  0.1624E+02  0.9127E+02
    -11.542  0.1732E+02  0.9355E+02
    -11.410  0.1374E+02  0.9536E+02
    -11.279  0.8427E+01  0.9647E+02
    -11.147  0.5650E+01  0.9721E+02
    -11.015  0.7725E+01  0.9823E+02
    -10.884  0.1297E+02  0.9994E+02
    -10.752  0.1700E+02  0.1022E+03
    -10.620  0.2190E+01  0.1025E+03
    -10.488  0.2043E+02  0.1052E+03
    -10.357  0.3747E+01  0.1056E+03
    -10.225  0.2463E+02  0.1089E+03
    -10.093  0.2542E+02  0.1122E+03
     -9.962  0.1835E+02  0.1147E+03
     -9.830  0.1514E+02  0.1167E+03
     -9.698  0.1725E+02  0.1189E+03
     -9.567  0.2769E+02  0.1226E+03
     -9.435  0.2055E+02  0.1253E+03
     -9.303  0.2735E+02  0.1289E+03
     -9.171  0.2379E+02  0.1320E+03
     -9.040  0.2844E+02  0.1358E+03
     -8.908  0.2014E+02  0.1384E+03
     -8.776  0.1746E+02  0.1407E+03
     -8.645  0.2335E+02  0.1438E+03
     -8.513  0.1746E+02  0.1461E+03
     -8.381  0.1647E+02  0.1483E+03
     -8.250  0.1532E+02  0.1503E+03
     -8.118  0.1597E+02  0.1524E+03
     -7.986  0.2882E+02  0.1562E+03
     -7.854  0.1606E+02  0.1583E+03
     -7.723  0.1628E+02  0.1604E+03
     -7.591  0.8062E+01  0.1615E+03
     -7.459  0.2206E+01  0.1618E+03
     -7.328  0.1779E+02  0.1641E+03
     -7.196  0.3220E+02  0.1684E+03
     -7.064  0.1566E+02  0.1704E+03
     -6.933  0.4575E+01  0.1710E+03
     -6.801  0.1917E+02  0.1736E+03
     -6.669  0.1274E+02  0.1752E+03
     -6.537  0.1597E+02  0.1773E+03
     -6.406  0.6985E+01  0.1783E+03
     -6.274  0.1258E+02  0.1799E+03
     -6.142  0.1534E+02  0.1819E+03
     -6.011  0.1372E+02  0.1837E+03
     -5.879  0.2022E+02  0.1864E+03
     -5.747  0.7919E+01  0.1874E+03
     -5.616  0.1337E+02  0.1892E+03
     -5.484  0.3503E+01  0.1897E+03
     -5.352  0.7945E+01  0.1907E+03
     -5.220  0.8473E+01  0.1918E+03
     -5.089  0.1204E+02  0.1934E+03
     -4.957  0.1843E+02  0.1958E+03
     -4.825  0.1483E+02  0.1978E+03
     -4.694  0.3185E+01  0.1982E+03
     -4.562  0.7979E-01  0.1982E+03
     -4.430  0.4473E-04  0.1982E+03
     -4.298  0.3159E+01  0.1986E+03
     -4.167  0.1720E+02  0.2009E+03
     -4.035  0.4949E+01  0.2016E+03
     -3.903  0.8658E-03  0.2016E+03
     -3.772  0.4570E+00  0.2016E+03
     -3.640  0.2903E+01  0.2020E+03
     -3.508  0.2685E+00  0.2020E+03
     -3.377  0.4376E+01  0.2026E+03
     -3.245  0.1231E+02  0.2042E+03
     -3.113  0.1084E+02  0.2057E+03
     -2.981  0.2647E+01  0.2060E+03
     -2.850  0.2595E+01  0.2063E+03
     -2.718  0.9087E+01  0.2075E+03
     -2.586  0.7384E-01  0.2076E+03
     -2.455  0.9395E-01  0.2076E+03
     -2.323  0.3172E+01  0.2080E+03
     -2.191  0.2920E+01  0.2084E+03
     -2.060  0.5632E+00  0.2084E+03
     -1.928  0.4573E-05  0.2084E+03
     -1.796  0.4544E-07  0.2084E+03
     -1.664  0.2163E+00  0.2085E+03
     -1.533  0.9556E+01  0.2097E+03
     -1.401  0.1244E+02  0.2114E+03
     -1.269  0.3094E+01  0.2118E+03
     -1.138  0.1439E-03  0.2118E+03
     -1.006  0.1187E+01  0.2119E+03
     -0.874  0.1089E+02  0.2134E+03
     -0.743  0.2306E+02  0.2164E+03
     -0.611  0.1836E+02  0.2188E+03
     -0.479  0.5359E+01  0.2195E+03
     -0.347  0.2236E+00  0.2196E+03
     -0.216  0.4616E+01  0.2202E+03
     -0.084  0.1143E+02  0.2217E+03
      0.048  0.1026E+02  0.2230E+03
      0.179  0.8281E+00  0.2231E+03
      0.311  0.1646E+02  0.2253E+03
      0.443  0.7345E+01  0.2263E+03
      0.574  0.3228E+01  0.2267E+03
      0.706  0.1127E+02  0.2282E+03
      0.838  0.1664E+02  0.2304E+03
      0.970  0.6295E+01  0.2312E+03
      1.101  0.1113E+02  0.2327E+03
      1.233  0.1477E+02  0.2346E+03
      1.365  0.8230E+01  0.2357E+03
      1.496  0.1518E+02  0.2377E+03
      1.628  0.2300E+02  0.2407E+03
      1.760  0.1567E+02  0.2428E+03
      1.891  0.2729E+02  0.2464E+03
      2.023  0.8365E+01  0.2475E+03
      2.155  0.1614E+02  0.2496E+03
      2.287  0.2617E+02  0.2531E+03
      2.418  0.2879E+02  0.2568E+03
      2.550  0.7194E+01  0.2578E+03
      2.682  0.6287E+01  0.2586E+03
      2.813  0.9160E+01  0.2598E+03
      2.945  0.4997E+01  0.2605E+03
      3.077  0.9266E+01  0.2617E+03
      3.208  0.2774E+01  0.2621E+03
      3.340  0.4503E+01  0.2627E+03
      3.472  0.2594E-01  0.2627E+03
      3.604  0.3438E+01  0.2631E+03
      3.735  0.3309E+01  0.2636E+03
      3.867  0.9408E-03  0.2636E+03
      3.999  0.6381E-06  0.2636E+03
      4.130  0.2962E+00  0.2636E+03
      4.262  0.3048E+01  0.2640E+03
      4.394  0.2997E-01  0.2640E+03
      4.525  0.1840E-08  0.2640E+03
      4.657  0.0000E+00  0.2640E+03
      4.789  0.0000E+00  0.2640E+03
      4.921  0.0000E+00  0.2640E+03
      5.052  0.0000E+00  0.2640E+03
      5.184  0.0000E+00  0.2640E+03
      5.316  0.0000E+00  0.2640E+03
      5.447  0.0000E+00  0.2640E+03
      5.579  0.0000E+00  0.2640E+03
      5.711  0.0000E+00  0.2640E+03
      5.842  0.0000E+00  0.2640E+03
      5.974  0.0000E+00  0.2640E+03
