  51  51   0   0
  0.5138078E+02  0.1230000E-08  0.1230000E-08  0.2000000E-08  0.5000000E-15
  1.000000000000000E-004
  CAR 
                                         
      5.95686515    -33.53724492  301     -3.01693369      1.00000000
    -33.537  0.0000E+00  0.0000E+00
    -33.406  0.0000E+00  0.0000E+00
    -33.274  0.0000E+00  0.0000E+00
    -33.142  0.0000E+00  0.0000E+00
    -33.011  0.0000E+00  0.0000E+00
    -32.879  0.0000E+00  0.0000E+00
    -32.747  0.0000E+00  0.0000E+00
    -32.616  0.0000E+00  0.0000E+00
    -32.484  0.0000E+00  0.0000E+00
    -32.352  0.0000E+00  0.0000E+00
    -32.221  0.0000E+00  0.0000E+00
    -32.089  0.0000E+00  0.0000E+00
    -31.957  0.8345E-08  0.1099E-08
    -31.826  0.1348E+00  0.1775E-01
    -31.694  0.1372E+02  0.1824E+01
    -31.563  0.1338E+01  0.2000E+01
    -31.431  0.2924E-05  0.2000E+01
    -31.299  0.0000E+00  0.2000E+01
    -31.168  0.0000E+00  0.2000E+01
    -31.036  0.0000E+00  0.2000E+01
    -30.904  0.0000E+00  0.2000E+01
    -30.773  0.0000E+00  0.2000E+01
    -30.641  0.0000E+00  0.2000E+01
    -30.509  0.0000E+00  0.2000E+01
    -30.378  0.0000E+00  0.2000E+01
    -30.246  0.0000E+00  0.2000E+01
    -30.114  0.0000E+00  0.2000E+01
    -29.983  0.0000E+00  0.2000E+01
    -29.851  0.0000E+00  0.2000E+01
    -29.719  0.0000E+00  0.2000E+01
    -29.588  0.0000E+00  0.2000E+01
    -29.456  0.0000E+00  0.2000E+01
    -29.325  0.0000E+00  0.2000E+01
    -29.193  0.0000E+00  0.2000E+01
    -29.061  0.0000E+00  0.2000E+01
    -28.930  0.0000E+00  0.2000E+01
    -28.798  0.0000E+00  0.2000E+01
    -28.666  0.0000E+00  0.2000E+01
    -28.535  0.0000E+00  0.2000E+01
    -28.403  0.0000E+00  0.2000E+01
    -28.271  0.0000E+00  0.2000E+01
    -28.140  0.0000E+00  0.2000E+01
    -28.008  0.0000E+00  0.2000E+01
    -27.876  0.0000E+00  0.2000E+01
    -27.745  0.0000E+00  0.2000E+01
    -27.613  0.0000E+00  0.2000E+01
    -27.481  0.0000E+00  0.2000E+01
    -27.350  0.0000E+00  0.2000E+01
    -27.218  0.0000E+00  0.2000E+01
    -27.087  0.0000E+00  0.2000E+01
    -26.955  0.0000E+00  0.2000E+01
    -26.823  0.0000E+00  0.2000E+01
    -26.692  0.0000E+00  0.2000E+01
    -26.560  0.0000E+00  0.2000E+01
    -26.428  0.0000E+00  0.2000E+01
    -26.297  0.0000E+00  0.2000E+01
    -26.165  0.0000E+00  0.2000E+01
    -26.033  0.0000E+00  0.2000E+01
    -25.902  0.0000E+00  0.2000E+01
    -25.770  0.0000E+00  0.2000E+01
    -25.638  0.0000E+00  0.2000E+01
    -25.507  0.0000E+00  0.2000E+01
    -25.375  0.0000E+00  0.2000E+01
    -25.243  0.0000E+00  0.2000E+01
    -25.112  0.0000E+00  0.2000E+01
    -24.980  0.0000E+00  0.2000E+01
    -24.849  0.0000E+00  0.2000E+01
    -24.717  0.0000E+00  0.2000E+01
    -24.585  0.0000E+00  0.2000E+01
    -24.454  0.0000E+00  0.2000E+01
    -24.322  0.0000E+00  0.2000E+01
    -24.190  0.0000E+00  0.2000E+01
    -24.059  0.0000E+00  0.2000E+01
    -23.927  0.0000E+00  0.2000E+01
    -23.795  0.0000E+00  0.2000E+01
    -23.664  0.0000E+00  0.2000E+01
    -23.532  0.0000E+00  0.2000E+01
    -23.400  0.0000E+00  0.2000E+01
    -23.269  0.0000E+00  0.2000E+01
    -23.137  0.0000E+00  0.2000E+01
    -23.005  0.0000E+00  0.2000E+01
    -22.874  0.0000E+00  0.2000E+01
    -22.742  0.0000E+00  0.2000E+01
    -22.611  0.0000E+00  0.2000E+01
    -22.479  0.3530E-08  0.2000E+01
    -22.347  0.2645E-01  0.2003E+01
    -22.216  0.3857E+01  0.2511E+01
    -22.084  0.9529E+01  0.3766E+01
    -21.952  0.5054E+01  0.4431E+01
    -21.821  0.1038E+02  0.5798E+01
    -21.689  0.5438E+01  0.6514E+01
    -21.557  0.8131E+01  0.7584E+01
    -21.426  0.1210E+02  0.9177E+01
    -21.294  0.6240E+01  0.9999E+01
    -21.162  0.3330E+01  0.1044E+02
    -21.031  0.8975E+01  0.1162E+02
    -20.899  0.1050E+02  0.1300E+02
    -20.767  0.1060E+02  0.1440E+02
    -20.636  0.8768E+01  0.1555E+02
    -20.504  0.1551E+00  0.1557E+02
    -20.373  0.1268E+02  0.1724E+02
    -20.241  0.4329E+01  0.1781E+02
    -20.109  0.1823E+02  0.2021E+02
    -19.978  0.1793E+01  0.2045E+02
    -19.846  0.3228E+01  0.2087E+02
    -19.714  0.1352E+02  0.2265E+02
    -19.583  0.8752E+01  0.2380E+02
    -19.451  0.6545E+01  0.2466E+02
    -19.319  0.6041E+01  0.2546E+02
    -19.188  0.1455E+02  0.2738E+02
    -19.056  0.7118E+01  0.2831E+02
    -18.924  0.5255E+01  0.2900E+02
    -18.793  0.5314E+01  0.2970E+02
    -18.661  0.4605E+01  0.3031E+02
    -18.529  0.1438E+02  0.3220E+02
    -18.398  0.1106E+02  0.3366E+02
    -18.266  0.9233E+01  0.3487E+02
    -18.135  0.3960E+01  0.3539E+02
    -18.003  0.1603E+02  0.3751E+02
    -17.871  0.4765E+01  0.3813E+02
    -17.740  0.3922E+01  0.3865E+02
    -17.608  0.4803E+01  0.3928E+02
    -17.476  0.1624E+02  0.4142E+02
    -17.345  0.4119E+01  0.4196E+02
    -17.213  0.2169E+02  0.4482E+02
    -17.081  0.6940E+01  0.4573E+02
    -16.950  0.3692E+01  0.4622E+02
    -16.818  0.8437E+01  0.4733E+02
    -16.686  0.3938E+01  0.4785E+02
    -16.555  0.9203E+01  0.4906E+02
    -16.423  0.8754E+01  0.5021E+02
    -16.291  0.3215E+01  0.5063E+02
    -16.160  0.8833E+01  0.5180E+02
    -16.028  0.5901E+01  0.5257E+02
    -15.897  0.1329E+02  0.5432E+02
    -15.765  0.1228E+02  0.5594E+02
    -15.633  0.1990E+01  0.5620E+02
    -15.502  0.4063E+01  0.5674E+02
    -15.370  0.3063E+01  0.5714E+02
    -15.238  0.9881E+01  0.5844E+02
    -15.107  0.2156E+02  0.6128E+02
    -14.975  0.5333E+01  0.6198E+02
    -14.843  0.1117E+02  0.6345E+02
    -14.712  0.1087E+02  0.6488E+02
    -14.580  0.6478E+01  0.6574E+02
    -14.448  0.1442E+02  0.6763E+02
    -14.317  0.6151E+01  0.6844E+02
    -14.185  0.7403E+00  0.6854E+02
    -14.053  0.4332E+01  0.6911E+02
    -13.922  0.9018E+01  0.7030E+02
    -13.790  0.1584E+02  0.7238E+02
    -13.659  0.1963E+02  0.7497E+02
    -13.527  0.1699E+01  0.7519E+02
    -13.395  0.2747E+01  0.7555E+02
    -13.264  0.3080E+00  0.7560E+02
    -13.132  0.1068E+02  0.7700E+02
    -13.000  0.1380E+02  0.7882E+02
    -12.869  0.2061E+02  0.8153E+02
    -12.737  0.1885E+01  0.8178E+02
    -12.605  0.3490E+01  0.8224E+02
    -12.474  0.1842E+02  0.8466E+02
    -12.342  0.1101E+02  0.8611E+02
    -12.210  0.3858E+01  0.8662E+02
    -12.079  0.2490E+01  0.8695E+02
    -11.947  0.1288E+02  0.8864E+02
    -11.815  0.2956E+01  0.8903E+02
    -11.684  0.1492E+02  0.9100E+02
    -11.552  0.1861E+02  0.9345E+02
    -11.421  0.1375E+02  0.9526E+02
    -11.289  0.8166E+01  0.9633E+02
    -11.157  0.5847E+01  0.9710E+02
    -11.026  0.8499E+01  0.9822E+02
    -10.894  0.1131E+02  0.9971E+02
    -10.762  0.1838E+02  0.1021E+03
    -10.631  0.1712E+01  0.1024E+03
    -10.499  0.2026E+02  0.1050E+03
    -10.367  0.4435E+01  0.1056E+03
    -10.236  0.2231E+02  0.1085E+03
    -10.104  0.2665E+02  0.1121E+03
     -9.972  0.1950E+02  0.1146E+03
     -9.841  0.1299E+02  0.1163E+03
     -9.709  0.1841E+02  0.1188E+03
     -9.577  0.2606E+02  0.1222E+03
     -9.446  0.2262E+02  0.1252E+03
     -9.314  0.2595E+02  0.1286E+03
     -9.183  0.2416E+02  0.1318E+03
     -9.051  0.2814E+02  0.1355E+03
     -8.919  0.2015E+02  0.1381E+03
     -8.788  0.1942E+02  0.1407E+03
     -8.656  0.2100E+02  0.1434E+03
     -8.524  0.1899E+02  0.1459E+03
     -8.393  0.1598E+02  0.1480E+03
     -8.261  0.1564E+02  0.1501E+03
     -8.129  0.1470E+02  0.1520E+03
     -7.998  0.2953E+02  0.1559E+03
     -7.866  0.1618E+02  0.1581E+03
     -7.734  0.1790E+02  0.1604E+03
     -7.603  0.7282E+01  0.1614E+03
     -7.471  0.3143E+01  0.1618E+03
     -7.339  0.1443E+02  0.1637E+03
     -7.208  0.3306E+02  0.1680E+03
     -7.076  0.1803E+02  0.1704E+03
     -6.945  0.3162E+01  0.1708E+03
     -6.813  0.2033E+02  0.1735E+03
     -6.681  0.1157E+02  0.1750E+03
     -6.550  0.1669E+02  0.1772E+03
     -6.418  0.7469E+01  0.1782E+03
     -6.286  0.1193E+02  0.1798E+03
     -6.155  0.1532E+02  0.1818E+03
     -6.023  0.1433E+02  0.1837E+03
     -5.891  0.1859E+02  0.1861E+03
     -5.760  0.8733E+01  0.1873E+03
     -5.628  0.1379E+02  0.1891E+03
     -5.496  0.4007E+01  0.1896E+03
     -5.365  0.7321E+01  0.1906E+03
     -5.233  0.9300E+01  0.1918E+03
     -5.101  0.1060E+02  0.1932E+03
     -4.970  0.1676E+02  0.1954E+03
     -4.838  0.1800E+02  0.1978E+03
     -4.707  0.3233E+01  0.1982E+03
     -4.575  0.1655E+00  0.1982E+03
     -4.443  0.6786E-05  0.1982E+03
     -4.312  0.1757E+01  0.1985E+03
     -4.180  0.1723E+02  0.2007E+03
     -4.048  0.6334E+01  0.2016E+03
     -3.917  0.3103E-02  0.2016E+03
     -3.785  0.2408E+00  0.2016E+03
     -3.653  0.3095E+01  0.2020E+03
     -3.522  0.1610E+00  0.2020E+03
     -3.390  0.3824E+01  0.2025E+03
     -3.258  0.1225E+02  0.2041E+03
     -3.127  0.1022E+02  0.2055E+03
     -2.995  0.3990E+01  0.2060E+03
     -2.863  0.2004E+01  0.2063E+03
     -2.732  0.9575E+01  0.2075E+03
     -2.600  0.2169E+00  0.2076E+03
     -2.469  0.3535E-01  0.2076E+03
     -2.337  0.3078E+01  0.2080E+03
     -2.205  0.2633E+01  0.2083E+03
     -2.074  0.1006E+01  0.2084E+03
     -1.942  0.3549E-04  0.2084E+03
     -1.810  0.2953E-08  0.2084E+03
     -1.679  0.6814E-01  0.2085E+03
     -1.547  0.9028E+01  0.2096E+03
     -1.415  0.1153E+02  0.2112E+03
     -1.284  0.4694E+01  0.2118E+03
     -1.152  0.3955E-03  0.2118E+03
     -1.020  0.6946E+00  0.2119E+03
     -0.889  0.9057E+01  0.2131E+03
     -0.757  0.2431E+02  0.2163E+03
     -0.625  0.1871E+02  0.2187E+03
     -0.494  0.5812E+01  0.2195E+03
     -0.362  0.4988E+00  0.2196E+03
     -0.231  0.3796E+01  0.2201E+03
     -0.099  0.1107E+02  0.2215E+03
      0.033  0.1074E+02  0.2229E+03
      0.164  0.1437E+01  0.2231E+03
      0.296  0.1417E+02  0.2250E+03
      0.428  0.9000E+01  0.2262E+03
      0.559  0.3339E+01  0.2266E+03
      0.691  0.8911E+01  0.2278E+03
      0.823  0.1880E+02  0.2303E+03
      0.954  0.5988E+01  0.2310E+03
      1.086  0.1015E+02  0.2324E+03
      1.218  0.1619E+02  0.2345E+03
      1.349  0.7206E+01  0.2355E+03
      1.481  0.1502E+02  0.2374E+03
      1.613  0.2296E+02  0.2405E+03
      1.744  0.1595E+02  0.2426E+03
      1.876  0.2756E+02  0.2462E+03
      2.007  0.8703E+01  0.2473E+03
      2.139  0.1581E+02  0.2494E+03
      2.271  0.2511E+02  0.2527E+03
      2.402  0.2887E+02  0.2565E+03
      2.534  0.9587E+01  0.2578E+03
      2.666  0.4982E+01  0.2584E+03
      2.797  0.1021E+02  0.2598E+03
      2.929  0.5143E+01  0.2605E+03
      3.061  0.8792E+01  0.2616E+03
      3.192  0.2646E+01  0.2620E+03
      3.324  0.5248E+01  0.2627E+03
      3.456  0.8564E-01  0.2627E+03
      3.587  0.1872E+01  0.2629E+03
      3.719  0.4868E+01  0.2636E+03
      3.851  0.1141E-01  0.2636E+03
      3.982  0.6455E-06  0.2636E+03
      4.114  0.2966E+00  0.2636E+03
      4.245  0.3049E+01  0.2640E+03
      4.377  0.3007E-01  0.2640E+03
      4.509  0.1870E-08  0.2640E+03
      4.640  0.0000E+00  0.2640E+03
      4.772  0.0000E+00  0.2640E+03
      4.904  0.0000E+00  0.2640E+03
      5.035  0.0000E+00  0.2640E+03
      5.167  0.0000E+00  0.2640E+03
      5.299  0.0000E+00  0.2640E+03
      5.430  0.0000E+00  0.2640E+03
      5.562  0.0000E+00  0.2640E+03
      5.694  0.0000E+00  0.2640E+03
      5.825  0.0000E+00  0.2640E+03
      5.957  0.0000E+00  0.2640E+03
