 vasp.5.4.4.18Apr17-6-g9f103f2a35 (build Aug 13 2022 23:40:43) complex          
  
 executed on             LinuxIFC date 2024.11.10  03:57:50
 running on   48 total cores
 distrk:  each k-point on   48 cores,    1 groups
 distr:  one band on NCORES_PER_BAND=   8 cores,    6 groups


--------------------------------------------------------------------------------------------------------


 INCAR:
 POTCAR:    PAW_PBE C 08Apr2002                   
 POTCAR:    PAW_PBE O 08Apr2002                   
 POTCAR:    PAW_PBE C 08Apr2002                   
   VRHFIN =C: s2p2                                                              
   LEXCH  = PE                                                                  
   EATOM  =   147.1560 eV,   10.8157 Ry                                         
                                                                                
   TITEL  = PAW_PBE C 08Apr2002                                                 
   LULTRA =        F    use ultrasoft PP ?                                      
   IUNSCR =        1    unscreen: 0-lin 1-nonlin 2-no                           
   RPACOR =    1.200    partial core radius                                     
   POMASS =   12.011; ZVAL   =    4.000    mass and valenz                      
   RCORE  =    1.500    outmost cutoff radius                                   
   RWIGS  =    1.630; RWIGS  =    0.863    wigner-seitz radius (au A)           
   ENMAX  =  400.000; ENMIN  =  300.000 eV                                      
   ICORE  =        2    local potential                                         
   LCOR   =        T    correct aug charges                                     
   LPAW   =        T    paw PP                                                  
   EAUG   =  644.873                                                            
   DEXC   =    0.000                                                            
   RMAX   =    1.529    core radius for proj-oper                               
   RAUG   =    1.300    factor for augmentation sphere                          
   RDEP   =    1.501    radius for radial grids                                 
   RDEPT  =    1.300    core radius for aug-charge                              
                                                                                
   Atomic configuration                                                         
    4 entries                                                                   
     n  l   j            E        occ.                                          
     1  0  0.50      -273.3789   2.0000                                         
     2  0  0.50       -13.7508   2.0000                                         
     2  1  0.50        -5.2854   2.0000                                         
     3  2  1.50        -5.4423   0.0000                                         
   Description                                                                  
     l       E           TYP  RCUT    TYP  RCUT                                 
     0    -13.7508458     23  1.200                                             
     0     -8.2022199     23  1.200                                             
     1     -5.2854383     23  1.500                                             
     1     34.0145650     23  1.500                                             
     2     -5.4423304      7  1.500                                             
  local pseudopotential read in
  partial core-charges read in
  partial kinetic energy density read in
  atomic valenz-charges read in
  non local Contribution for L=           0  read in
    real space projection operators read in
  non local Contribution for L=           0  read in
    real space projection operators read in
  non local Contribution for L=           1  read in
    real space projection operators read in
  non local Contribution for L=           1  read in
    real space projection operators read in
    PAW grid and wavefunctions read in
 
   number of l-projection  operators is LMAX  =           4
   number of lm-projection operators is LMMAX =           8
 
 POTCAR:    PAW_PBE O 08Apr2002                   
   VRHFIN =O: s2p4                                                              
   LEXCH  = PE                                                                  
   EATOM  =   432.3788 eV,   31.7789 Ry                                         
                                                                                
   TITEL  = PAW_PBE O 08Apr2002                                                 
   LULTRA =        F    use ultrasoft PP ?                                      
   IUNSCR =        1    unscreen: 0-lin 1-nonlin 2-no                           
   RPACOR =    1.200    partial core radius                                     
   POMASS =   16.000; ZVAL   =    6.000    mass and valenz                      
   RCORE  =    1.520    outmost cutoff radius                                   
   RWIGS  =    1.550; RWIGS  =    0.820    wigner-seitz radius (au A)           
   ENMAX  =  400.000; ENMIN  =  300.000 eV                                      
   ICORE  =        2    local potential                                         
   LCOR   =        T    correct aug charges                                     
   LPAW   =        T    paw PP                                                  
   EAUG   =  605.392                                                            
   DEXC   =    0.000                                                            
   RMAX   =    1.553    core radius for proj-oper                               
   RAUG   =    1.300    factor for augmentation sphere                          
   RDEP   =    1.550    radius for radial grids                                 
   RDEPT  =    1.329    core radius for aug-charge                              
                                                                                
   Atomic configuration                                                         
    4 entries                                                                   
     n  l   j            E        occ.                                          
     1  0  0.50      -514.6923   2.0000                                         
     2  0  0.50       -23.9615   2.0000                                         
     2  1  0.50        -9.0305   4.0000                                         
     3  2  1.50        -9.5241   0.0000                                         
   Description                                                                  
     l       E           TYP  RCUT    TYP  RCUT                                 
     0    -23.9615318     23  1.200                                             
     0     -9.5240782     23  1.200                                             
     1     -9.0304911     23  1.520                                             
     1      8.1634956     23  1.520                                             
     2     -9.5240782      7  1.500                                             
  local pseudopotential read in
  partial core-charges read in
  partial kinetic energy density read in
  kinetic energy density of atom read in
  atomic valenz-charges read in
  non local Contribution for L=           0  read in
    real space projection operators read in
  non local Contribution for L=           0  read in
    real space projection operators read in
  non local Contribution for L=           1  read in
    real space projection operators read in
  non local Contribution for L=           1  read in
    real space projection operators read in
    PAW grid and wavefunctions read in
 
   number of l-projection  operators is LMAX  =           4
   number of lm-projection operators is LMMAX =           8
 

 ----------------------------------------------------------------------------- 
|                                                                             |
|  ADVICE TO THIS USER RUNNING 'VASP/VAMP'   (HEAR YOUR MASTER'S VOICE ...):  |
|                                                                             |
|      You have a (more or less) 'large supercell' and for larger cells       |
|      it might be more efficient to use real space projection opertators     |
|      So try LREAL= Auto  in the INCAR   file.                               |
|      Mind:          For very  accurate calculation you might also keep the  |
|      reciprocal projection scheme          (i.e. LREAL=.FALSE.)             |
|                                                                             |
 ----------------------------------------------------------------------------- 

  PAW_PBE C 08Apr2002                   :
 energy of atom  1       EATOM= -147.1560
 kinetic energy error for atom=    0.0288 (will be added to EATOM!!)
  PAW_PBE O 08Apr2002                   :
 energy of atom  2       EATOM= -432.3788
 kinetic energy error for atom=    0.1156 (will be added to EATOM!!)
 
 
 POSCAR: generated by phonopy                    
  positions in direct lattice
  No initial velocities read in
 exchange correlation table for  LEXCH =        8
   RHO(1)=    0.500       N(1)  =     2000
   RHO(2)=  100.500       N(2)  =     4000

 VTST: version 3.2, (02/03/18)

 CHAIN: initializing optimizer
 
 OPT: Using VASP Dynamics algorithm
 CHAIN: Read ICHAIN            0
 
 POSCAR: generated by phonopy                    
  positions in direct lattice
  No initial velocities read in
 


--------------------------------------------------------------------------------------------------------


 ion  position               nearest neighbor table
   1  0.000  0.000  0.418-  26 1.42  30 1.42  46 1.42
   2  0.200  0.000  0.418-  27 1.42  26 1.42  47 1.42
   3  0.400  0.000  0.418-  28 1.42  27 1.42  48 1.42
   4  0.600  0.000  0.418-  29 1.42  28 1.42  49 1.42
   5  0.800  0.000  0.418-  30 1.42  29 1.42  50 1.42
   6  0.000  0.200  0.418-  31 1.42  35 1.42  26 1.42
   7  0.200  0.200  0.418-  32 1.42  31 1.42  27 1.42
   8  0.400  0.200  0.418-  33 1.42  32 1.42  28 1.42
   9  0.600  0.200  0.418-  34 1.42  33 1.42  29 1.42
  10  0.800  0.200  0.418-  35 1.42  34 1.42  30 1.42
  11  0.000  0.400  0.418-  36 1.42  40 1.42  31 1.42
  12  0.200  0.400  0.418-  37 1.42  36 1.42  32 1.42
  13  0.400  0.400  0.418-  51 1.00  38 1.42  37 1.42  33 1.42
  14  0.600  0.400  0.418-  39 1.42  38 1.42  34 1.42
  15  0.800  0.400  0.418-  40 1.42  39 1.42  35 1.42
  16  0.000  0.600  0.418-  41 1.42  45 1.42  36 1.42
  17  0.200  0.600  0.418-  42 1.42  41 1.42  37 1.42
  18  0.400  0.600  0.418-  43 1.42  42 1.42  38 1.42
  19  0.600  0.600  0.418-  44 1.42  43 1.42  39 1.42
  20  0.800  0.600  0.418-  45 1.42  44 1.42  40 1.42
  21  0.000  0.800  0.418-  46 1.42  50 1.42  41 1.42
  22  0.200  0.800  0.418-  47 1.42  46 1.42  42 1.42
  23  0.400  0.800  0.418-  48 1.42  47 1.42  43 1.42
  24  0.600  0.800  0.418-  49 1.42  48 1.42  44 1.42
  25  0.800  0.800  0.418-  50 1.42  49 1.42  45 1.42
  26  0.067  0.067  0.418-   1 1.42   2 1.42   6 1.42
  27  0.267  0.067  0.418-   2 1.42   3 1.42   7 1.42
  28  0.467  0.067  0.418-   3 1.42   4 1.42   8 1.42
  29  0.667  0.067  0.418-   4 1.42   5 1.42   9 1.42
  30  0.867  0.067  0.418-   5 1.42   1 1.42  10 1.42
  31  0.067  0.267  0.418-   6 1.42   7 1.42  11 1.42
  32  0.267  0.267  0.418-   7 1.42  12 1.42   8 1.42
  33  0.467  0.267  0.418-   9 1.42  13 1.42   8 1.42  51 1.74
  34  0.667  0.267  0.418-   9 1.42  10 1.42  14 1.42
  35  0.867  0.267  0.418-  10 1.42   6 1.42  15 1.42
  36  0.067  0.467  0.418-  11 1.42  12 1.42  16 1.42
  37  0.267  0.467  0.418-  12 1.42  13 1.42  17 1.42  51 1.74
  38  0.467  0.467  0.418-  13 1.42  14 1.42  18 1.42  51 1.74
  39  0.667  0.467  0.418-  14 1.42  15 1.42  19 1.42
  40  0.867  0.467  0.418-  15 1.42  11 1.42  20 1.42
  41  0.067  0.667  0.418-  16 1.42  17 1.42  21 1.42
  42  0.267  0.667  0.418-  17 1.42  18 1.42  22 1.42
  43  0.467  0.667  0.418-  18 1.42  19 1.42  23 1.42
  44  0.667  0.667  0.418-  19 1.42  20 1.42  24 1.42
  45  0.867  0.667  0.418-  20 1.42  16 1.42  25 1.42
  46  0.067  0.867  0.418-  21 1.42  22 1.42   1 1.42
  47  0.267  0.867  0.418-  22 1.42  23 1.42   2 1.42
  48  0.467  0.867  0.418-  23 1.42  24 1.42   3 1.42
  49  0.667  0.867  0.418-  24 1.42  25 1.42   4 1.42
  50  0.867  0.867  0.418-  25 1.42  21 1.42   5 1.42
  51  0.400  0.400  0.468-  13 1.00  38 1.74  37 1.74  33 1.74
 
  LATTYP: Found a hexagonal cell.
 ALAT       =    12.2999994816
 C/A-ratio  =     1.6260163287
  
  Lattice vectors:
  
 A1 = (   6.1499993860, -10.6521122225,   0.0000000000)
 A2 = ( -12.3000001905,   0.0000000000,   0.0000000000)
 A3 = (   0.0000000000,   0.0000000000, -20.0000000000)


Analysis of symmetry for initial positions (statically):
=====================================================================
 Subroutine PRICEL returns:
 Original cell was already a primitive cell.
 

 Routine SETGRP: Setting up the symmetry group for a 
 hexagonal supercell.


 Subroutine GETGRP returns: Found  1 space group operations
 (whereof  1 operations were pure point group operations)
 out of a pool of 24 trial point group operations.


The static configuration has the point symmetry C_1 .


Analysis of symmetry for dynamics (positions and initial velocities):
=====================================================================
 Subroutine PRICEL returns:
 Original cell was already a primitive cell.
 

 Routine SETGRP: Setting up the symmetry group for a 
 hexagonal supercell.


 Subroutine GETGRP returns: Found  1 space group operations
 (whereof  1 operations were pure point group operations)
 out of a pool of 24 trial point group operations.


The dynamic configuration has the point symmetry C_1 .


 Subroutine INISYM returns: Found  1 space group operations
 (whereof  1 operations are pure point group operations),
 and found     1 'primitive' translations

 
 
 KPOINTS: K-POINTS                                

Automatic generation of k-mesh.
Space group operators:
 irot       det(A)        alpha          n_x          n_y          n_z        tau_x        tau_y        tau_z
    1     1.000000     0.000000     1.000000     0.000000     0.000000     0.000000     0.000000     0.000000
 
 Subroutine IBZKPT returns following result:
 ===========================================
 
 Found      5 irreducible k-points:
 
 Following reciprocal coordinates:
            Coordinates               Weight
  0.000000  0.000000  0.000000      1.000000
  0.333333  0.000000  0.000000      2.000000
  0.000000  0.333333  0.000000      2.000000
  0.333333  0.333333  0.000000      2.000000
 -0.333333  0.333333  0.000000      2.000000
 
 Following cartesian coordinates:
            Coordinates               Weight
  0.000000  0.000000  0.000000      1.000000
  0.027100 -0.015646  0.000000      2.000000
  0.000000  0.031293  0.000000      2.000000
  0.027100  0.015646  0.000000      2.000000
 -0.027100  0.046939  0.000000      2.000000
 


--------------------------------------------------------------------------------------------------------




 Dimension of arrays:
   k-points           NKPTS =      5   k-points in BZ     NKDIM =      5   number of bands    NBANDS=    132
   number of dos      NEDOS =    301   number of ions     NIONS =     51
   non local maximal  LDIM  =      4   non local SUM 2l+1 LMDIM =      8
   total plane-waves  NPLWV = 896000
   max r-space proj   IRMAX =      1   max aug-charges    IRDMAX=  35685
   dimension x,y,z NGX =    80 NGY =   80 NGZ =  140
   dimension x,y,z NGXF=   160 NGYF=  160 NGZF=  280
   support grid    NGXF=   320 NGYF=  320 NGZF=  560
   ions per type =              50   1
   NGX,Y,Z   is equivalent  to a cutoff of  10.81, 10.81, 11.64 a.u.
   NGXF,Y,Z  is equivalent  to a cutoff of  21.63, 21.63, 23.27 a.u.

 SYSTEM =                                          
 POSCAR =  generated by phonopy                    

 Startparameter for this run:
   NWRITE =      2    write-flag & timer
   PREC   = accura    normal or accurate (medium, high low for compatibility)
   ISTART =      1    job   : 0-new  1-cont  2-samecut
   ICHARG =      1    charge: 1-file 2-atom 10-const
   ISPIN  =      1    spin polarized calculation?
   LNONCOLLINEAR =      F non collinear calculations
   LSORBIT =      F    spin-orbit coupling
   INIWAV =      1    electr: 0-lowe 1-rand  2-diag
   LASPH  =      F    aspherical Exc in radial PAW
   METAGGA=      F    non-selfconsistent MetaGGA calc.

 Electronic Relaxation 1
   ENCUT  =  400.0 eV  29.40 Ry    5.42 a.u.  20.06 20.06 32.61*2*pi/ulx,y,z
   ENINI  =  400.0     initial cutoff
   ENAUG  =  644.9 eV  augmentation charge cutoff
   NELM   =    300;   NELMIN=  2; NELMDL=  0     # of ELM steps 
   EDIFF  = 0.1E-04   stopping-criterion for ELM
   LREAL  =      F    real-space projection
   NLSPLINE    = F    spline interpolate recip. space projectors
   LCOMPAT=      F    compatible to vasp.4.4
   GGA_COMPAT  = T    GGA compatible to vasp.4.4-vasp.4.6
   LMAXPAW     = -100 max onsite density
   LMAXMIX     =    2 max onsite mixed and CHGCAR
   VOSKOWN=      0    Vosko Wilk Nusair interpolation
   ROPT   =    0.00000   0.00000
 Ionic relaxation
   EDIFFG = -.1E-02   stopping-criterion for IOM
   NSW    =      1    number of steps for IOM
   NBLOCK =      1;   KBLOCK =      1    inner block; outer block 
   IBRION =     -1    ionic relax: 0-MD 1-quasi-New 2-CG
   NFREE  =      0    steps in history (QN), initial steepest desc. (CG)
   ISIF   =      2    stress and relaxation
   IWAVPR =     10    prediction:  0-non 1-charg 2-wave 3-comb
   ISYM   =      2    0-nonsym 1-usesym 2-fastsym
   LCORR  =      T    Harris-Foulkes like correction to forces

   POTIM  = 0.5000    time-step for ionic-motion
   TEIN   =    0.0    initial temperature
   TEBEG  =    0.0;   TEEND  =   0.0 temperature during run
   SMASS  =  -3.00    Nose mass-parameter (am)
   estimated Nose-frequenzy (Omega)   =  0.10E-29 period in steps =****** mass=  -0.346E-26a.u.
   SCALEE = 1.0000    scale energy and forces
   NPACO  =    256;   APACO  = 16.0  distance and # of slots for P.C.
   PSTRESS=    0.0 pullay stress

  Mass of Ions in am
   POMASS =  12.01 16.00
  Ionic Valenz
   ZVAL   =   4.00  6.00
  Atomic Wigner-Seitz radii
   RWIGS  =  -1.00 -1.00
  virtual crystal weights 
   VCA    =   1.00  1.00
   NELECT =     206.0000    total number of electrons
   NUPDOWN=      -1.0000    fix difference up-down

 DOS related values:
   EMIN   =  10.00;   EMAX   =-10.00  energy-range for DOS
   EFERMI =   0.00
   ISMEAR =     0;   SIGMA  =   0.05  broadening in eV -4-tet -1-fermi 0-gaus

 Electronic relaxation 2 (details)
   IALGO  =     68    algorithm
   LDIAG  =      T    sub-space diagonalisation (order eigenvalues)
   LSUBROT=      F    optimize rotation matrix (better conditioning)
   TURBO    =      0    0=normal 1=particle mesh
   IRESTART =      0    0=no restart 2=restart with 2 vectors
   NREBOOT  =      0    no. of reboots
   NMIN     =      0    reboot dimension
   EREF     =   0.00    reference energy to select bands
   IMIX   =      4    mixing-type and parameters
     AMIX     =   0.40;   BMIX     =  1.00
     AMIX_MAG =   1.60;   BMIX_MAG =  1.00
     AMIN     =   0.10
     WC   =   100.;   INIMIX=   1;  MIXPRE=   1;  MAXMIX= -45

 Intra band minimization:
   WEIMIN = 0.0000     energy-eigenvalue tresh-hold
   EBREAK =  0.19E-07  absolut break condition
   DEPER  =   0.30     relativ break condition  

   TIME   =   0.40     timestep for ELM

  volume/ion in A,a.u.               =      51.38       346.73
  Fermi-wavevector in a.u.,A,eV,Ry     =   0.701305  1.325274  6.691736  0.491829
  Thomas-Fermi vector in A             =   1.785695
 
 Write flags
   LWAVE        =      F    write WAVECAR
   LDOWNSAMPLE  =      F    k-point downsampling of WAVECAR
   LCHARG       =      F    write CHGCAR
   LVTOT        =      F    write LOCPOT, total local potential
   LVHAR        =      F    write LOCPOT, Hartree potential only
   LELF         =      F    write electronic localiz. function (ELF)
   LORBIT       =      0    0 simple, 1 ext, 2 COOP (PROOUT), +10 PAW based schemes


 Dipole corrections
   LMONO  =      F    monopole corrections only (constant potential shift)
   LDIPOL =      F    correct potential (dipole corrections)
   IDIPOL =      0    1-x, 2-y, 3-z, 4-all directions 
   EPSILON=  1.0000000 bulk dielectric constant

 Exchange correlation treatment:
   GGA     =    --    GGA type
   LEXCH   =     8    internal setting for exchange type
   VOSKOWN=      0    Vosko Wilk Nusair interpolation
   LHFCALC =     F    Hartree Fock is set to
   LHFONE  =     F    Hartree Fock one center treatment
   AEXX    =    0.0000 exact exchange contribution

 Linear response parameters
   LEPSILON=     F    determine dielectric tensor
   LRPA    =     F    only Hartree local field effects (RPA)
   LNABLA  =     F    use nabla operator in PAW spheres
   LVEL    =     F    velocity operator in full k-point grid
   LINTERFAST=   F  fast interpolation
   KINTER  =     0    interpolate to denser k-point grid
   CSHIFT  =0.1000    complex shift for real part using Kramers Kronig
   OMEGAMAX=  -1.0    maximum frequency
   DEG_THRESHOLD= 0.2000000E-02 threshold for treating states as degnerate
   RTIME   =   -0.100 relaxation time in fs
  (WPLASMAI=    0.000 imaginary part of plasma frequency in eV, 0.658/RTIME)
   DFIELD  = 0.0000000 0.0000000 0.0000000 field for delta impulse in time
 
 Orbital magnetization related:
   ORBITALMAG=     F  switch on orbital magnetization
   LCHIMAG   =     F  perturbation theory with respect to B field
   DQ        =  0.001000  dq finite difference perturbation B field
   LLRAUG    =     F  two centre corrections for induced B field



--------------------------------------------------------------------------------------------------------


 Static calculation
 charge density and potential will be updated during run
 non-spin polarized calculation
 RMM-DIIS sequential band-by-band and
  variant of blocked Davidson during initial phase
 perform sub-space diagonalisation
    before iterative eigenvector-optimisation
 modified Broyden-mixing scheme, WC =      100.0
 initial mixing is a Kerker type mixing with AMIX =  0.4000 and BMIX =      1.0000
 Hartree-type preconditioning will be used
 using additional bands           29
 reciprocal scheme for non local part
 use partial core corrections
 calculate Harris-corrections to forces 
   (improved forces if not selfconsistent)
 use gradient corrections 
 use of overlap-Matrix (Vanderbilt PP)
 Gauss-broadening in eV      SIGMA  =   0.05


--------------------------------------------------------------------------------------------------------


  energy-cutoff  :      400.00
  volume of cell :     2620.42
      direct lattice vectors                 reciprocal lattice vectors
    12.300000191  0.000000000  0.000000000     0.081300812 -0.046939053  0.000000000
     6.150000804 10.652112223  0.000000000     0.000000000  0.093878095  0.000000000
     0.000000000  0.000000000 20.000000000     0.000000000  0.000000000  0.050000000

  length of vectors
    12.300000191 12.300000191 20.000000000     0.093878095  0.093878095  0.050000000


 
 old parameters found on file WAVECAR:
  energy-cutoff  :      400.00
  volume of cell :     2620.42
      direct lattice vectors                 reciprocal lattice vectors
    12.300000191  0.000000000  0.000000000     0.081300812 -0.046939053  0.000000000
     6.150000804 10.652112223  0.000000000     0.000000000  0.093878095  0.000000000
     0.000000000  0.000000000 20.000000000     0.000000000  0.000000000  0.050000000

  length of vectors

 
 k-points in units of 2pi/SCALE and weight: K-POINTS                                
   0.00000000  0.00000000  0.00000000       0.111
   0.02710027 -0.01564635  0.00000000       0.222
   0.00000000  0.03129270  0.00000000       0.222
   0.02710027  0.01564635  0.00000000       0.222
  -0.02710027  0.04693905  0.00000000       0.222
 
 k-points in reciprocal lattice and weights: K-POINTS                                
   0.00000000  0.00000000  0.00000000       0.111
   0.33333333  0.00000000  0.00000000       0.222
   0.00000000  0.33333333  0.00000000       0.222
   0.33333333  0.33333333  0.00000000       0.222
  -0.33333333  0.33333333  0.00000000       0.222
 
 position of ions in fractional coordinates (direct lattice) 
   0.00000000  0.00000000  0.41799748
   0.20000000  0.00000000  0.41799748
   0.40000000  0.00000000  0.41799748
   0.60000000  0.00000000  0.41799748
   0.80000000  0.00000000  0.41799748
   0.00000000  0.20000000  0.41799748
   0.20000000  0.20000000  0.41799748
   0.40000000  0.20000000  0.41849748
   0.60000000  0.20000000  0.41799748
   0.80000000  0.20000000  0.41799748
   0.00000000  0.40000000  0.41799748
   0.20000000  0.40000000  0.41799748
   0.40000000  0.40000000  0.41799748
   0.60000000  0.40000000  0.41799748
   0.80000000  0.40000000  0.41799748
   0.00000000  0.60000000  0.41799748
   0.20000000  0.60000000  0.41799748
   0.40000000  0.60000000  0.41799748
   0.60000000  0.60000000  0.41799748
   0.80000000  0.60000000  0.41799748
   0.00000000  0.80000000  0.41799748
   0.20000000  0.80000000  0.41799748
   0.40000000  0.80000000  0.41799748
   0.60000000  0.80000000  0.41799748
   0.80000000  0.80000000  0.41799748
   0.06666667  0.06666660  0.41800609
   0.26666667  0.06666660  0.41800609
   0.46666667  0.06666660  0.41800609
   0.66666667  0.06666660  0.41800609
   0.86666667  0.06666660  0.41800609
   0.06666667  0.26666660  0.41800609
   0.26666667  0.26666660  0.41800609
   0.46666667  0.26666660  0.41800609
   0.66666667  0.26666660  0.41800609
   0.86666667  0.26666660  0.41800609
   0.06666667  0.46666660  0.41800609
   0.26666667  0.46666660  0.41800609
   0.46666667  0.46666660  0.41800609
   0.66666667  0.46666660  0.41800609
   0.86666667  0.46666660  0.41800609
   0.06666667  0.66666660  0.41800609
   0.26666667  0.66666660  0.41800609
   0.46666667  0.66666660  0.41800609
   0.66666667  0.66666660  0.41800609
   0.86666667  0.66666660  0.41800609
   0.06666667  0.86666660  0.41800609
   0.26666667  0.86666660  0.41800609
   0.46666667  0.86666660  0.41800609
   0.66666667  0.86666660  0.41800609
   0.86666667  0.86666660  0.41800609
   0.40000000  0.40000000  0.46800609
 
 position of ions in cartesian coordinates  (Angst):
   0.00000000  0.00000000  8.35994958
   2.46000004  0.00000000  8.35994958
   4.92000008  0.00000000  8.35994958
   7.38000011  0.00000000  8.35994958
   9.84000015  0.00000000  8.35994958
   1.23000016  2.13042244  8.35994958
   3.69000020  2.13042244  8.35994958
   6.15000024  2.13042244  8.36994958
   8.61000028  2.13042244  8.35994958
  11.07000031  2.13042244  8.35994958
   2.46000032  4.26084489  8.35994958
   4.92000036  4.26084489  8.35994958
   7.38000040  4.26084489  8.35994958
   9.84000044  4.26084489  8.35994958
  12.30000047  4.26084489  8.35994958
   3.69000048  6.39126733  8.35994958
   6.15000052  6.39126733  8.35994958
   8.61000056  6.39126733  8.35994958
  11.07000060  6.39126733  8.35994958
  13.53000064  6.39126733  8.35994958
   4.92000064  8.52168978  8.35994958
   7.38000068  8.52168978  8.35994958
   9.84000072  8.52168978  8.35994958
  12.30000076  8.52168978  8.35994958
  14.76000080  8.52168978  8.35994958
   1.22999970  0.71014014  8.36012184
   3.68999974  0.71014014  8.36012184
   6.14999977  0.71014014  8.36012184
   8.60999981  0.71014014  8.36012184
  11.06999985  0.71014014  8.36012184
   2.45999986  2.84056258  8.36012184
   4.91999990  2.84056258  8.36012184
   7.37999994  2.84056258  8.36012184
   9.83999997  2.84056258  8.36012184
  12.30000001  2.84056258  8.36012184
   3.69000002  4.97098503  8.36012184
   6.15000006  4.97098503  8.36012184
   8.61000010  4.97098503  8.36012184
  11.07000013  4.97098503  8.36012184
  13.53000017  4.97098503  8.36012184
   4.92000018  7.10140747  8.36012184
   7.38000022  7.10140747  8.36012184
   9.84000026  7.10140747  8.36012184
  12.30000030  7.10140747  8.36012184
  14.76000033  7.10140747  8.36012184
   6.15000034  9.23182991  8.36012184
   8.61000038  9.23182991  8.36012184
  11.07000042  9.23182991  8.36012184
  13.53000046  9.23182991  8.36012184
  15.99000049  9.23182991  8.36012184
   7.38000040  4.26084489  9.36012184
 


--------------------------------------------------------------------------------------------------------


 k-point  1 :   0.0000 0.0000 0.0000  plane waves:   47639
 k-point  2 :   0.3333 0.0000 0.0000  plane waves:   47601
 k-point  3 :   0.0000 0.3333 0.0000  plane waves:   47601
 k-point  4 :   0.3333 0.3333 0.0000  plane waves:   47601
 k-point  5 :  -0.3333 0.3333 0.0000  plane waves:   47598

 maximum and minimum number of plane-waves per node :      5975     5928

 maximum number of plane-waves:     47639
 maximum index in each direction: 
   IXMAX=   20   IYMAX=   20   IZMAX=   32
   IXMIN=  -20   IYMIN=  -20   IZMIN=  -32


 parallel 3D FFT for wavefunctions:
    minimum data exchange during FFTs selected (reduces bandwidth)
 parallel 3D FFT for charge:
    minimum data exchange during FFTs selected (reduces bandwidth)


 total amount of memory used by VASP MPI-rank0    90113. kBytes
=======================================================================

   base      :      30000. kBytes
   nonl-proj :       8674. kBytes
   fftplans  :      26248. kBytes
   grid      :      14579. kBytes
   one-center:         21. kBytes
   wavefun   :      10591. kBytes
 
     INWAV:  cpu time    0.8105: real time    0.8111
 Broyden mixing: mesh for mixing (old mesh)
   NGX = 41   NGY = 41   NGZ = 65
  (NGX  =160   NGY  =160   NGZ  =280)
  gives a total of 109265 points

 initial charge density was supplied:
 number of electron     206.0000000 magnetization 
 keeping initial charge density in first step


--------------------------------------------------------------------------------------------------------


 Maximum index for augmentation-charges         1119 (set IRDMAX)


--------------------------------------------------------------------------------------------------------


 First call to EWALD:  gamma=   0.129
 Maximum number of real-space cells 3x 3x 2
 Maximum number of reciprocal cells 3x 3x 4

    FEWALD:  cpu time    0.0013: real time    0.0029


--------------------------------------- Iteration      1(   1)  ---------------------------------------


    POTLOK:  cpu time    0.1063: real time    0.1082
    SETDIJ:  cpu time    0.0898: real time    0.0910
     EDDAV:  cpu time    4.0903: real time    4.0929
       DOS:  cpu time    0.0005: real time    0.0005
    CHARGE:  cpu time    0.3923: real time    0.3927
    MIXING:  cpu time    0.0062: real time    0.0063
    --------------------------------------------
      LOOP:  cpu time    4.6854: real time    4.6916

 eigenvalue-minimisations  :  1344
 total energy-change (2. order) :-0.4532973E+03  (-0.2841207E+02)
 number of electron     206.0000000 magnetization 
 augmentation part        5.5093158 magnetization 

 Broyden mixing:
  rms(total) = 0.48916E-01    rms(broyden)= 0.48886E-01
  rms(prec ) = 0.50333E-01
  weight for this iteration     100.00

 Free energy of the ion-electron system (eV)
  ---------------------------------------------------
  alpha Z        PSCENC =        82.54348252
  Ewald energy   TEWEN  =     34516.70382289
  -Hartree energ DENC   =    -41035.01395914
  -exchange      EXHF   =         0.00000000
  -V(xc)+E(xc)   XCENC  =       721.37992855
  PAW double counting   =     22781.19595426   -22817.52509957
  entropy T*S    EENTRO =        -0.00051791
  eigenvalues    EBANDS =     -2491.20529120
  atomic energy  EATOM  =      7788.62438962
  Solvation  Ediel_sol  =         0.00000000
  ---------------------------------------------------
  free energy    TOTEN  =      -453.29728998 eV

  energy without entropy =     -453.29677207  energy(sigma->0) =     -453.29703102


--------------------------------------------------------------------------------------------------------




--------------------------------------- Iteration      1(   2)  ---------------------------------------


    POTLOK:  cpu time    0.0977: real time    0.0996
    SETDIJ:  cpu time    0.0803: real time    0.0825
    EDDIAG:  cpu time    0.8831: real time    0.8836
  RMM-DIIS:  cpu time    3.7783: real time    3.7830
    ORTHCH:  cpu time    0.0405: real time    0.0410
       DOS:  cpu time    0.0004: real time    0.0004
    CHARGE:  cpu time    0.3929: real time    0.3930
    MIXING:  cpu time    0.0056: real time    0.0057
    --------------------------------------------
      LOOP:  cpu time    5.2788: real time    5.2887

 eigenvalue-minimisations  :  1418
 total energy-change (2. order) :-0.9879078E+00  (-0.9901568E+00)
 number of electron     206.0000000 magnetization 
 augmentation part        5.5409430 magnetization 

 Broyden mixing:
  rms(total) = 0.20000E-01    rms(broyden)= 0.19942E-01
  rms(prec ) = 0.21368E-01
  weight for this iteration     100.00

 eigenvalues of (default mixing * dielectric matrix)
  average eigenvalue GAMMA=   0.7337
  0.7337

 Free energy of the ion-electron system (eV)
  ---------------------------------------------------
  alpha Z        PSCENC =        82.54348252
  Ewald energy   TEWEN  =     34516.70382289
  -Hartree energ DENC   =    -41032.47539896
  -exchange      EXHF   =         0.00000000
  -V(xc)+E(xc)   XCENC  =       721.27228289
  PAW double counting   =     22841.87613505   -22878.15382449
  entropy T*S    EENTRO =        -0.00009504
  eigenvalues    EBANDS =     -2494.67599225
  atomic energy  EATOM  =      7788.62438962
  Solvation  Ediel_sol  =         0.00000000
  ---------------------------------------------------
  free energy    TOTEN  =      -454.28519777 eV

  energy without entropy =     -454.28510273  energy(sigma->0) =     -454.28515025


--------------------------------------------------------------------------------------------------------




--------------------------------------- Iteration      1(   3)  ---------------------------------------


    POTLOK:  cpu time    0.0998: real time    0.1016
    SETDIJ:  cpu time    0.0805: real time    0.0819
    EDDIAG:  cpu time    0.8848: real time    0.8855
  RMM-DIIS:  cpu time    4.1105: real time    4.1123
    ORTHCH:  cpu time    0.0412: real time    0.0412
       DOS:  cpu time    0.0004: real time    0.0004
    CHARGE:  cpu time    0.3907: real time    0.3911
    MIXING:  cpu time    0.0047: real time    0.0047
    --------------------------------------------
      LOOP:  cpu time    5.6127: real time    5.6188

 eigenvalue-minimisations  :  1568
 total energy-change (2. order) :-0.5232127E-01  (-0.5854770E-01)
 number of electron     206.0000000 magnetization 
 augmentation part        5.5434541 magnetization 

 Broyden mixing:
  rms(total) = 0.15090E-01    rms(broyden)= 0.15076E-01
  rms(prec ) = 0.15625E-01
  weight for this iteration     100.00

 eigenvalues of (default mixing * dielectric matrix)
  average eigenvalue GAMMA=   0.6518
  0.6518  0.6518

 Free energy of the ion-electron system (eV)
  ---------------------------------------------------
  alpha Z        PSCENC =        82.54348252
  Ewald energy   TEWEN  =     34516.70382289
  -Hartree energ DENC   =    -41033.16923125
  -exchange      EXHF   =         0.00000000
  -V(xc)+E(xc)   XCENC  =       721.30458965
  PAW double counting   =     22830.83169400   -22867.12405051
  entropy T*S    EENTRO =        -0.00012418
  eigenvalues    EBANDS =     -2494.05209178
  atomic energy  EATOM  =      7788.62438962
  Solvation  Ediel_sol  =         0.00000000
  ---------------------------------------------------
  free energy    TOTEN  =      -454.33751904 eV

  energy without entropy =     -454.33739486  energy(sigma->0) =     -454.33745695


--------------------------------------------------------------------------------------------------------




--------------------------------------- Iteration      1(   4)  ---------------------------------------


    POTLOK:  cpu time    0.0973: real time    0.0981
    SETDIJ:  cpu time    0.0805: real time    0.0819
    EDDIAG:  cpu time    0.8816: real time    0.8820
  RMM-DIIS:  cpu time    4.0832: real time    4.0871
    ORTHCH:  cpu time    0.0410: real time    0.0412
       DOS:  cpu time    0.0004: real time    0.0004
    CHARGE:  cpu time    0.3904: real time    0.3904
    MIXING:  cpu time    0.0052: real time    0.0052
    --------------------------------------------
      LOOP:  cpu time    5.5795: real time    5.5861

 eigenvalue-minimisations  :  1567
 total energy-change (2. order) :-0.3889881E-02  (-0.4067274E-02)
 number of electron     206.0000000 magnetization 
 augmentation part        5.5459465 magnetization 

 Broyden mixing:
  rms(total) = 0.15252E-01    rms(broyden)= 0.15251E-01
  rms(prec ) = 0.15715E-01
  weight for this iteration     100.00

 eigenvalues of (default mixing * dielectric matrix)
  average eigenvalue GAMMA=   0.8516
  1.0117  1.0117  0.5312

 Free energy of the ion-electron system (eV)
  ---------------------------------------------------
  alpha Z        PSCENC =        82.54348252
  Ewald energy   TEWEN  =     34516.70382289
  -Hartree energ DENC   =    -41033.48479999
  -exchange      EXHF   =         0.00000000
  -V(xc)+E(xc)   XCENC  =       721.31873274
  PAW double counting   =     22822.75311006   -22859.05257044
  entropy T*S    EENTRO =        -0.00010878
  eigenvalues    EBANDS =     -2493.74746753
  atomic energy  EATOM  =      7788.62438962
  Solvation  Ediel_sol  =         0.00000000
  ---------------------------------------------------
  free energy    TOTEN  =      -454.34140892 eV

  energy without entropy =     -454.34130014  energy(sigma->0) =     -454.34135453


--------------------------------------------------------------------------------------------------------




--------------------------------------- Iteration      1(   5)  ---------------------------------------


    POTLOK:  cpu time    0.1058: real time    0.1085
    SETDIJ:  cpu time    0.0814: real time    0.0833
    EDDIAG:  cpu time    0.8804: real time    0.8811
  RMM-DIIS:  cpu time    4.0305: real time    4.0346
    ORTHCH:  cpu time    0.0492: real time    0.0493
       DOS:  cpu time    0.0003: real time    0.0003
    CHARGE:  cpu time    0.3921: real time    0.3925
    MIXING:  cpu time    0.0053: real time    0.0053
    --------------------------------------------
      LOOP:  cpu time    5.5451: real time    5.5549

 eigenvalue-minimisations  :  1534
 total energy-change (2. order) :-0.1444500E-03  (-0.3011299E-03)
 number of electron     206.0000000 magnetization 
 augmentation part        5.5452728 magnetization 

 Broyden mixing:
  rms(total) = 0.88177E-02    rms(broyden)= 0.88174E-02
  rms(prec ) = 0.90564E-02
  weight for this iteration     100.00

 eigenvalues of (default mixing * dielectric matrix)
  average eigenvalue GAMMA=   1.1255
  1.5127  1.5127  0.5714  0.9050

 Free energy of the ion-electron system (eV)
  ---------------------------------------------------
  alpha Z        PSCENC =        82.54348252
  Ewald energy   TEWEN  =     34516.70382289
  -Hartree energ DENC   =    -41034.12006237
  -exchange      EXHF   =         0.00000000
  -V(xc)+E(xc)   XCENC  =       721.34522851
  PAW double counting   =     22803.29842298   -22839.61168905
  entropy T*S    EENTRO =        -0.00011077
  eigenvalues    EBANDS =     -2493.12503769
  atomic energy  EATOM  =      7788.62438962
  Solvation  Ediel_sol  =         0.00000000
  ---------------------------------------------------
  free energy    TOTEN  =      -454.34155337 eV

  energy without entropy =     -454.34144260  energy(sigma->0) =     -454.34149799


--------------------------------------------------------------------------------------------------------




--------------------------------------- Iteration      1(   6)  ---------------------------------------


    POTLOK:  cpu time    0.0988: real time    0.1014
    SETDIJ:  cpu time    0.0795: real time    0.0822
    EDDIAG:  cpu time    0.8788: real time    0.8797
  RMM-DIIS:  cpu time    4.0087: real time    4.0125
    ORTHCH:  cpu time    0.0414: real time    0.0415
       DOS:  cpu time    0.0004: real time    0.0004
    CHARGE:  cpu time    0.3899: real time    0.3904
    MIXING:  cpu time    0.0043: real time    0.0043
    --------------------------------------------
      LOOP:  cpu time    5.5018: real time    5.5124

 eigenvalue-minimisations  :  1516
 total energy-change (2. order) : 0.4984131E-05  (-0.5274366E-04)
 number of electron     206.0000000 magnetization 
 augmentation part        5.5445327 magnetization 

 Broyden mixing:
  rms(total) = 0.10981E-02    rms(broyden)= 0.10950E-02
  rms(prec ) = 0.11424E-02
  weight for this iteration     100.00

 eigenvalues of (default mixing * dielectric matrix)
  average eigenvalue GAMMA=   1.2007
  2.0393  1.2068  1.2068  0.9840  0.5667

 Free energy of the ion-electron system (eV)
  ---------------------------------------------------
  alpha Z        PSCENC =        82.54348252
  Ewald energy   TEWEN  =     34516.70382289
  -Hartree energ DENC   =    -41034.90950822
  -exchange      EXHF   =         0.00000000
  -V(xc)+E(xc)   XCENC  =       721.37812634
  PAW double counting   =     22779.75081406   -22816.08032442
  entropy T*S    EENTRO =        -0.00011249
  eigenvalues    EBANDS =     -2492.35223870
  atomic energy  EATOM  =      7788.62438962
  Solvation  Ediel_sol  =         0.00000000
  ---------------------------------------------------
  free energy    TOTEN  =      -454.34154839 eV

  energy without entropy =     -454.34143590  energy(sigma->0) =     -454.34149214


--------------------------------------------------------------------------------------------------------




--------------------------------------- Iteration      1(   7)  ---------------------------------------


    POTLOK:  cpu time    0.0987: real time    0.0988
    SETDIJ:  cpu time    0.0838: real time    0.0838
    EDDIAG:  cpu time    0.8916: real time    0.8918
  RMM-DIIS:  cpu time    3.2895: real time    3.2912
    ORTHCH:  cpu time    0.0418: real time    0.0419
       DOS:  cpu time    0.0004: real time    0.0004
    CHARGE:  cpu time    0.4041: real time    0.4041
    MIXING:  cpu time    0.0041: real time    0.0041
    --------------------------------------------
      LOOP:  cpu time    4.8139: real time    4.8160

 eigenvalue-minimisations  :  1205
 total energy-change (2. order) :-0.1729069E-04  (-0.4700134E-05)
 number of electron     206.0000000 magnetization 
 augmentation part        5.5442599 magnetization 

 Broyden mixing:
  rms(total) = 0.12885E-02    rms(broyden)= 0.12878E-02
  rms(prec ) = 0.13399E-02
  weight for this iteration     100.00

 eigenvalues of (default mixing * dielectric matrix)
  average eigenvalue GAMMA=   1.2787
  2.0983  1.5141  1.5141  0.9910  0.9910  0.5638

 Free energy of the ion-electron system (eV)
  ---------------------------------------------------
  alpha Z        PSCENC =        82.54348252
  Ewald energy   TEWEN  =     34516.70382289
  -Hartree energ DENC   =    -41035.10261888
  -exchange      EXHF   =         0.00000000
  -V(xc)+E(xc)   XCENC  =       721.38577368
  PAW double counting   =     22776.03134845   -22812.36391999
  entropy T*S    EENTRO =        -0.00011363
  eigenvalues    EBANDS =     -2492.16373032
  atomic energy  EATOM  =      7788.62438962
  Solvation  Ediel_sol  =         0.00000000
  ---------------------------------------------------
  free energy    TOTEN  =      -454.34156568 eV

  energy without entropy =     -454.34145204  energy(sigma->0) =     -454.34150886


--------------------------------------------------------------------------------------------------------




--------------------------------------- Iteration      1(   8)  ---------------------------------------


    POTLOK:  cpu time    0.0992: real time    0.0994
    SETDIJ:  cpu time    0.0789: real time    0.0789
    EDDIAG:  cpu time    0.8944: real time    0.8945
  RMM-DIIS:  cpu time    2.7042: real time    2.7055
    ORTHCH:  cpu time    0.0410: real time    0.0410
       DOS:  cpu time    0.0003: real time    0.0003
    --------------------------------------------
      LOOP:  cpu time    3.8179: real time    3.8195

 eigenvalue-minimisations  :   940
 total energy-change (2. order) :-0.3173771E-05  (-0.8866073E-06)
 number of electron     206.0000000 magnetization 
 augmentation part        5.5442599 magnetization 

 Free energy of the ion-electron system (eV)
  ---------------------------------------------------
  alpha Z        PSCENC =        82.54348252
  Ewald energy   TEWEN  =     34516.70382289
  -Hartree energ DENC   =    -41034.98310222
  -exchange      EXHF   =         0.00000000
  -V(xc)+E(xc)   XCENC  =       721.38026878
  PAW double counting   =     22780.46440070   -22816.79379066
  entropy T*S    EENTRO =        -0.00011332
  eigenvalues    EBANDS =     -2492.28092716
  atomic energy  EATOM  =      7788.62438962
  Solvation  Ediel_sol  =         0.00000000
  ---------------------------------------------------
  free energy    TOTEN  =      -454.34156885 eV

  energy without entropy =     -454.34145554  energy(sigma->0) =     -454.34151220


--------------------------------------------------------------------------------------------------------




 average (electrostatic) potential at core
  the test charge radii are     0.6991  0.7215
  (the norm of the test charge is              1.0000)
       1 -58.2603       2 -58.2602       3 -58.2040       4 -58.0581       5 -58.2039
       6 -58.2603       7 -58.2761       8 -58.1344       9 -58.1330      10 -58.2761
      11 -58.2037      12 -58.1334      13 -60.6895      14 -58.1334      15 -58.2037
      16 -58.0585      17 -58.1333      18 -58.1334      19 -58.0584      20 -58.0650
      21 -58.2037      22 -58.2763      23 -58.2038      24 -58.0649      25 -58.0651
      26 -58.3819      27 -58.2925      28 -58.2236      29 -58.2224      30 -58.2928
      31 -58.2927      32 -58.3142      33 -58.8156      34 -58.3151      35 -58.2927
      36 -58.2220      37 -58.8117      38 -58.8127      39 -58.2220      40 -58.2232
      41 -58.2219      42 -58.3150      43 -58.2220      44 -58.1640      45 -58.1641
      46 -58.2928      47 -58.2928      48 -58.2234      49 -58.1639      50 -58.2233
      51 -81.5755
 
 
 
 E-fermi :  -3.0169     XC(G=0):  -2.2149     alpha+bet : -1.9409


 k-point     1 :       0.0000    0.0000    0.0000
  band No.  band energies     occupation 
      1     -31.7419      2.00000
      2     -22.2711      2.00000
      3     -21.5037      2.00000
      4     -21.5033      2.00000
      5     -21.3946      2.00000
      6     -21.3945      2.00000
      7     -21.3938      2.00000
      8     -20.8744      2.00000
      9     -19.8778      2.00000
     10     -19.8769      2.00000
     11     -19.5494      2.00000
     12     -19.5493      2.00000
     13     -19.5391      2.00000
     14     -19.1913      2.00000
     15     -18.9015      2.00000
     16     -18.9012      2.00000
     17     -18.6437      2.00000
     18     -18.6432      2.00000
     19     -18.6432      2.00000
     20     -17.8843      2.00000
     21     -17.0224      2.00000
     22     -17.0217      2.00000
     23     -16.4781      2.00000
     24     -16.4583      2.00000
     25     -16.4582      2.00000
     26     -16.0497      2.00000
     27     -15.9971      2.00000
     28     -15.9968      2.00000
     29     -15.4977      2.00000
     30     -15.4976      2.00000
     31     -15.4931      2.00000
     32     -15.0902      2.00000
     33     -14.6296      2.00000
     34     -14.6293      2.00000
     35     -14.1500      2.00000
     36     -14.1499      2.00000
     37     -14.1433      2.00000
     38     -13.9658      2.00000
     39     -12.9913      2.00000
     40     -12.9906      2.00000
     41     -12.0323      2.00000
     42     -11.7652      2.00000
     43     -11.7651      2.00000
     44     -11.7620      2.00000
     45     -11.6905      2.00000
     46     -11.6904      2.00000
     47     -11.6518      2.00000
     48     -11.6499      2.00000
     49     -11.6498      2.00000
     50     -11.6489      2.00000
     51     -10.8022      2.00000
     52     -10.8016      2.00000
     53     -10.4292      2.00000
     54     -10.3342      2.00000
     55     -10.2891      2.00000
     56     -10.2890      2.00000
     57     -10.2707      2.00000
     58     -10.0786      2.00000
     59      -9.6862      2.00000
     60      -9.6851      2.00000
     61      -9.3258      2.00000
     62      -9.3254      2.00000
     63      -9.3001      2.00000
     64      -9.2798      2.00000
     65      -9.2797      2.00000
     66      -9.0464      2.00000
     67      -9.0050      2.00000
     68      -9.0049      2.00000
     69      -8.9487      2.00000
     70      -8.9408      2.00000
     71      -8.9406      2.00000
     72      -8.9404      2.00000
     73      -8.9192      2.00000
     74      -8.9190      2.00000
     75      -8.8935      2.00000
     76      -8.4374      2.00000
     77      -7.8023      2.00000
     78      -7.8001      2.00000
     79      -7.3254      2.00000
     80      -7.3241      2.00000
     81      -7.3102      2.00000
     82      -7.3023      2.00000
     83      -7.3001      2.00000
     84      -7.2994      2.00000
     85      -7.1610      2.00000
     86      -7.1608      2.00000
     87      -7.1551      2.00000
     88      -6.7512      2.00000
     89      -6.5087      2.00000
     90      -6.5077      2.00000
     91      -6.2670      2.00000
     92      -6.2466      2.00000
     93      -6.2464      2.00000
     94      -5.9234      2.00000
     95      -5.9218      2.00000
     96      -5.1952      2.00000
     97      -4.7657      2.00000
     98      -4.7644      2.00000
     99      -4.2708      2.00000
    100      -4.2664      2.00000
    101      -4.2663      2.00000
    102      -3.2154      2.00000
    103      -3.2138      2.00000
    104      -2.9158      0.00424
    105      -1.4615      0.00000
    106      -1.4571      0.00000
    107      -1.4570      0.00000
    108      -0.9910      0.00000
    109      -0.9906      0.00000
    110      -0.5429      0.00000
    111       0.4170      0.00000
    112       0.4215      0.00000
    113       0.4218      0.00000
    114       0.5624      0.00000
    115       0.8430      0.00000
    116       0.8439      0.00000
    117       1.2914      0.00000
    118       1.3392      0.00000
    119       1.6725      0.00000
    120       1.8022      0.00000
    121       1.8030      0.00000
    122       1.8035      0.00000
    123       1.8254      0.00000
    124       1.8272      0.00000
    125       2.0308      0.00000
    126       2.1765      0.00000
    127       2.1794      0.00000
    128       2.1795      0.00000
    129       2.3466      0.00000
    130       2.3480      0.00000
    131       2.6041      0.00000
    132       2.7205      0.00000

 k-point     2 :       0.3333    0.0000    0.0000
  band No.  band energies     occupation 
      1     -31.7420      2.00000
      2     -22.1890      2.00000
      3     -21.8694      2.00000
      4     -21.6617      2.00000
      5     -21.4547      2.00000
      6     -21.0350      2.00000
      7     -20.8974      2.00000
      8     -20.7277      2.00000
      9     -20.4205      2.00000
     10     -20.1623      2.00000
     11     -19.7872      2.00000
     12     -19.7000      2.00000
     13     -19.3264      2.00000
     14     -19.2431      2.00000
     15     -19.0620      2.00000
     16     -18.5931      2.00000
     17     -18.4581      2.00000
     18     -18.1217      2.00000
     19     -18.0633      2.00000
     20     -17.5912      2.00000
     21     -17.4983      2.00000
     22     -17.3008      2.00000
     23     -17.2768      2.00000
     24     -16.8516      2.00000
     25     -16.6587      2.00000
     26     -16.1763      2.00000
     27     -15.9784      2.00000
     28     -15.8479      2.00000
     29     -15.2986      2.00000
     30     -15.1702      2.00000
     31     -15.1345      2.00000
     32     -14.8850      2.00000
     33     -14.7821      2.00000
     34     -14.4789      2.00000
     35     -14.4562      2.00000
     36     -13.7673      2.00000
     37     -13.7598      2.00000
     38     -13.1970      2.00000
     39     -13.0896      2.00000
     40     -12.9344      2.00000
     41     -12.9045      2.00000
     42     -12.5850      2.00000
     43     -12.5501      2.00000
     44     -12.3906      2.00000
     45     -12.0218      2.00000
     46     -11.6638      2.00000
     47     -11.4478      2.00000
     48     -11.2962      2.00000
     49     -11.1220      2.00000
     50     -10.9146      2.00000
     51     -10.8501      2.00000
     52     -10.5843      2.00000
     53     -10.5333      2.00000
     54     -10.2856      2.00000
     55     -10.2370      2.00000
     56     -10.1610      2.00000
     57     -10.0494      2.00000
     58      -9.8530      2.00000
     59      -9.8206      2.00000
     60      -9.6553      2.00000
     61      -9.6086      2.00000
     62      -9.5612      2.00000
     63      -9.5267      2.00000
     64      -9.3706      2.00000
     65      -9.3408      2.00000
     66      -9.2598      2.00000
     67      -9.1760      2.00000
     68      -9.0998      2.00000
     69      -9.0824      2.00000
     70      -8.8644      2.00000
     71      -8.7128      2.00000
     72      -8.6643      2.00000
     73      -8.5069      2.00000
     74      -8.4029      2.00000
     75      -8.2871      2.00000
     76      -8.1341      2.00000
     77      -8.0941      2.00000
     78      -8.0651      2.00000
     79      -7.9715      2.00000
     80      -7.8072      2.00000
     81      -7.6210      2.00000
     82      -7.3600      2.00000
     83      -7.3370      2.00000
     84      -7.2667      2.00000
     85      -7.1979      2.00000
     86      -6.9201      2.00000
     87      -6.8727      2.00000
     88      -6.6946      2.00000
     89      -6.5912      2.00000
     90      -6.3486      2.00000
     91      -6.1855      2.00000
     92      -6.0731      2.00000
     93      -5.9214      2.00000
     94      -5.7407      2.00000
     95      -5.6411      2.00000
     96      -5.3225      2.00000
     97      -5.1158      2.00000
     98      -4.9700      2.00000
     99      -4.9227      2.00000
    100      -4.2700      2.00000
    101      -4.1693      2.00000
    102      -3.3367      2.00000
    103      -3.1366      1.99929
    104      -2.8039      0.00000
    105      -1.5910      0.00000
    106      -1.4235      0.00000
    107      -0.8400      0.00000
    108      -0.8188      0.00000
    109      -0.7060      0.00000
    110      -0.6682      0.00000
    111      -0.1284      0.00000
    112      -0.0059      0.00000
    113       0.2927      0.00000
    114       0.7048      0.00000
    115       0.7265      0.00000
    116       1.1009      0.00000
    117       1.1741      0.00000
    118       1.3637      0.00000
    119       1.4619      0.00000
    120       1.5377      0.00000
    121       1.5701      0.00000
    122       1.6372      0.00000
    123       1.8227      0.00000
    124       1.9110      0.00000
    125       2.0382      0.00000
    126       2.2209      0.00000
    127       2.2639      0.00000
    128       2.3277      0.00000
    129       2.3388      0.00000
    130       2.3964      0.00000
    131       2.4572      0.00000
    132       2.7939      0.00000

 k-point     3 :       0.0000    0.3333    0.0000
  band No.  band energies     occupation 
      1     -31.7420      2.00000
      2     -22.1891      2.00000
      3     -21.8694      2.00000
      4     -21.6615      2.00000
      5     -21.4548      2.00000
      6     -21.0349      2.00000
      7     -20.8976      2.00000
      8     -20.7279      2.00000
      9     -20.4203      2.00000
     10     -20.1623      2.00000
     11     -19.7874      2.00000
     12     -19.6995      2.00000
     13     -19.3264      2.00000
     14     -19.2431      2.00000
     15     -19.0623      2.00000
     16     -18.5929      2.00000
     17     -18.4582      2.00000
     18     -18.1215      2.00000
     19     -18.0635      2.00000
     20     -17.5911      2.00000
     21     -17.4981      2.00000
     22     -17.3009      2.00000
     23     -17.2767      2.00000
     24     -16.8517      2.00000
     25     -16.6590      2.00000
     26     -16.1766      2.00000
     27     -15.9780      2.00000
     28     -15.8479      2.00000
     29     -15.2986      2.00000
     30     -15.1699      2.00000
     31     -15.1344      2.00000
     32     -14.8851      2.00000
     33     -14.7819      2.00000
     34     -14.4790      2.00000
     35     -14.4561      2.00000
     36     -13.7674      2.00000
     37     -13.7602      2.00000
     38     -13.1969      2.00000
     39     -13.0896      2.00000
     40     -12.9345      2.00000
     41     -12.9046      2.00000
     42     -12.5853      2.00000
     43     -12.5503      2.00000
     44     -12.3904      2.00000
     45     -12.0224      2.00000
     46     -11.6632      2.00000
     47     -11.4473      2.00000
     48     -11.2964      2.00000
     49     -11.1221      2.00000
     50     -10.9145      2.00000
     51     -10.8504      2.00000
     52     -10.5844      2.00000
     53     -10.5329      2.00000
     54     -10.2858      2.00000
     55     -10.2371      2.00000
     56     -10.1616      2.00000
     57     -10.0491      2.00000
     58      -9.8535      2.00000
     59      -9.8206      2.00000
     60      -9.6544      2.00000
     61      -9.6069      2.00000
     62      -9.5608      2.00000
     63      -9.5276      2.00000
     64      -9.3713      2.00000
     65      -9.3405      2.00000
     66      -9.2597      2.00000
     67      -9.1759      2.00000
     68      -9.0997      2.00000
     69      -9.0830      2.00000
     70      -8.8654      2.00000
     71      -8.7132      2.00000
     72      -8.6648      2.00000
     73      -8.5051      2.00000
     74      -8.4022      2.00000
     75      -8.2872      2.00000
     76      -8.1328      2.00000
     77      -8.0947      2.00000
     78      -8.0672      2.00000
     79      -7.9716      2.00000
     80      -7.8084      2.00000
     81      -7.6202      2.00000
     82      -7.3605      2.00000
     83      -7.3366      2.00000
     84      -7.2664      2.00000
     85      -7.1971      2.00000
     86      -6.9202      2.00000
     87      -6.8734      2.00000
     88      -6.6923      2.00000
     89      -6.5925      2.00000
     90      -6.3483      2.00000
     91      -6.1853      2.00000
     92      -6.0736      2.00000
     93      -5.9223      2.00000
     94      -5.7393      2.00000
     95      -5.6423      2.00000
     96      -5.3229      2.00000
     97      -5.1153      2.00000
     98      -4.9701      2.00000
     99      -4.9226      2.00000
    100      -4.2698      2.00000
    101      -4.1697      2.00000
    102      -3.3367      2.00000
    103      -3.1371      1.99932
    104      -2.8026      0.00000
    105      -1.5916      0.00000
    106      -1.4237      0.00000
    107      -0.8399      0.00000
    108      -0.8191      0.00000
    109      -0.7060      0.00000
    110      -0.6679      0.00000
    111      -0.1284      0.00000
    112      -0.0059      0.00000
    113       0.2926      0.00000
    114       0.7047      0.00000
    115       0.7271      0.00000
    116       1.0976      0.00000
    117       1.1766      0.00000
    118       1.3645      0.00000
    119       1.4622      0.00000
    120       1.5376      0.00000
    121       1.5696      0.00000
    122       1.6380      0.00000
    123       1.8233      0.00000
    124       1.9120      0.00000
    125       2.0398      0.00000
    126       2.2247      0.00000
    127       2.2657      0.00000
    128       2.3348      0.00000
    129       2.4252      0.00000
    130       2.7282      0.00000
    131       3.2546      0.00000
    132       3.6221      0.00000

 k-point     4 :       0.3333    0.3333    0.0000
  band No.  band energies     occupation 
      1     -31.7420      2.00000
      2     -22.1891      2.00000
      3     -21.8694      2.00000
      4     -21.6616      2.00000
      5     -21.4546      2.00000
      6     -21.0350      2.00000
      7     -20.8974      2.00000
      8     -20.7278      2.00000
      9     -20.4205      2.00000
     10     -20.1624      2.00000
     11     -19.7873      2.00000
     12     -19.6998      2.00000
     13     -19.3264      2.00000
     14     -19.2431      2.00000
     15     -19.0620      2.00000
     16     -18.5931      2.00000
     17     -18.4582      2.00000
     18     -18.1217      2.00000
     19     -18.0633      2.00000
     20     -17.5910      2.00000
     21     -17.4983      2.00000
     22     -17.3009      2.00000
     23     -17.2768      2.00000
     24     -16.8518      2.00000
     25     -16.6589      2.00000
     26     -16.1763      2.00000
     27     -15.9783      2.00000
     28     -15.8478      2.00000
     29     -15.2985      2.00000
     30     -15.1702      2.00000
     31     -15.1344      2.00000
     32     -14.8850      2.00000
     33     -14.7819      2.00000
     34     -14.4788      2.00000
     35     -14.4562      2.00000
     36     -13.7676      2.00000
     37     -13.7600      2.00000
     38     -13.1968      2.00000
     39     -13.0897      2.00000
     40     -12.9343      2.00000
     41     -12.9047      2.00000
     42     -12.5855      2.00000
     43     -12.5505      2.00000
     44     -12.3903      2.00000
     45     -12.0224      2.00000
     46     -11.6636      2.00000
     47     -11.4472      2.00000
     48     -11.2962      2.00000
     49     -11.1220      2.00000
     50     -10.9146      2.00000
     51     -10.8502      2.00000
     52     -10.5846      2.00000
     53     -10.5327      2.00000
     54     -10.2859      2.00000
     55     -10.2371      2.00000
     56     -10.1615      2.00000
     57     -10.0492      2.00000
     58      -9.8534      2.00000
     59      -9.8206      2.00000
     60      -9.6543      2.00000
     61      -9.6072      2.00000
     62      -9.5609      2.00000
     63      -9.5275      2.00000
     64      -9.3715      2.00000
     65      -9.3398      2.00000
     66      -9.2603      2.00000
     67      -9.1758      2.00000
     68      -9.0997      2.00000
     69      -9.0831      2.00000
     70      -8.8654      2.00000
     71      -8.7135      2.00000
     72      -8.6644      2.00000
     73      -8.5051      2.00000
     74      -8.4024      2.00000
     75      -8.2873      2.00000
     76      -8.1327      2.00000
     77      -8.0945      2.00000
     78      -8.0671      2.00000
     79      -7.9716      2.00000
     80      -7.8080      2.00000
     81      -7.6199      2.00000
     82      -7.3606      2.00000
     83      -7.3364      2.00000
     84      -7.2668      2.00000
     85      -7.1982      2.00000
     86      -6.9201      2.00000
     87      -6.8735      2.00000
     88      -6.6923      2.00000
     89      -6.5917      2.00000
     90      -6.3485      2.00000
     91      -6.1853      2.00000
     92      -6.0739      2.00000
     93      -5.9220      2.00000
     94      -5.7396      2.00000
     95      -5.6416      2.00000
     96      -5.3227      2.00000
     97      -5.1160      2.00000
     98      -4.9701      2.00000
     99      -4.9227      2.00000
    100      -4.2701      2.00000
    101      -4.1694      2.00000
    102      -3.3362      2.00000
    103      -3.1363      1.99926
    104      -2.8039      0.00000
    105      -1.5912      0.00000
    106      -1.4237      0.00000
    107      -0.8398      0.00000
    108      -0.8192      0.00000
    109      -0.7061      0.00000
    110      -0.6678      0.00000
    111      -0.1285      0.00000
    112      -0.0059      0.00000
    113       0.2925      0.00000
    114       0.7051      0.00000
    115       0.7271      0.00000
    116       1.0980      0.00000
    117       1.1769      0.00000
    118       1.3649      0.00000
    119       1.4632      0.00000
    120       1.5588      0.00000
    121       1.5749      0.00000
    122       1.7188      0.00000
    123       1.8243      0.00000
    124       2.1687      0.00000
    125       2.3341      0.00000
    126       2.3954      0.00000
    127       2.6128      0.00000
    128       2.7611      0.00000
    129       2.8331      0.00000
    130       3.2030      0.00000
    131       3.5968      0.00000
    132       4.1617      0.00000

 k-point     5 :      -0.3333    0.3333    0.0000
  band No.  band energies     occupation 
      1     -31.7421      2.00000
      2     -22.0806      2.00000
      3     -22.0077      2.00000
      4     -21.8018      2.00000
      5     -21.1725      2.00000
      6     -21.1508      2.00000
      7     -20.8676      2.00000
      8     -20.4138      2.00000
      9     -20.3393      2.00000
     10     -20.1722      2.00000
     11     -20.1504      2.00000
     12     -20.1431      2.00000
     13     -19.5670      2.00000
     14     -18.8271      2.00000
     15     -18.6752      2.00000
     16     -18.3727      2.00000
     17     -18.3489      2.00000
     18     -18.3365      2.00000
     19     -17.9303      2.00000
     20     -17.8020      2.00000
     21     -17.6018      2.00000
     22     -17.2616      2.00000
     23     -17.1533      2.00000
     24     -17.1210      2.00000
     25     -16.5433      2.00000
     26     -16.4380      2.00000
     27     -16.2846      2.00000
     28     -15.8088      2.00000
     29     -15.6292      2.00000
     30     -15.1758      2.00000
     31     -14.9698      2.00000
     32     -14.6526      2.00000
     33     -13.9604      2.00000
     34     -13.9395      2.00000
     35     -13.9248      2.00000
     36     -13.8740      2.00000
     37     -13.8641      2.00000
     38     -13.7921      2.00000
     39     -13.6761      2.00000
     40     -13.4951      2.00000
     41     -13.0378      2.00000
     42     -12.4746      2.00000
     43     -12.2542      2.00000
     44     -12.0715      2.00000
     45     -11.8237      2.00000
     46     -11.7739      2.00000
     47     -11.5635      2.00000
     48     -11.5458      2.00000
     49     -11.5229      2.00000
     50     -10.9292      2.00000
     51     -10.8176      2.00000
     52     -10.5310      2.00000
     53     -10.2061      2.00000
     54     -10.2039      2.00000
     55     -10.1943      2.00000
     56     -10.0949      2.00000
     57     -10.0534      2.00000
     58     -10.0222      2.00000
     59      -9.9030      2.00000
     60      -9.7515      2.00000
     61      -9.7482      2.00000
     62      -9.5644      2.00000
     63      -9.4412      2.00000
     64      -9.4078      2.00000
     65      -9.1997      2.00000
     66      -9.0466      2.00000
     67      -9.0340      2.00000
     68      -8.9017      2.00000
     69      -8.8847      2.00000
     70      -8.6875      2.00000
     71      -8.6374      2.00000
     72      -8.6355      2.00000
     73      -8.6241      2.00000
     74      -8.5836      2.00000
     75      -8.3747      2.00000
     76      -8.2524      2.00000
     77      -8.1650      2.00000
     78      -8.0363      2.00000
     79      -7.9846      2.00000
     80      -7.8798      2.00000
     81      -7.8580      2.00000
     82      -7.8548      2.00000
     83      -7.2239      2.00000
     84      -7.1839      2.00000
     85      -7.1277      2.00000
     86      -6.8853      2.00000
     87      -6.7217      2.00000
     88      -6.6130      2.00000
     89      -6.4602      2.00000
     90      -6.2699      2.00000
     91      -6.1041      2.00000
     92      -5.9167      2.00000
     93      -5.9111      2.00000
     94      -5.8977      2.00000
     95      -5.4532      2.00000
     96      -5.4254      2.00000
     97      -5.1223      2.00000
     98      -5.0141      2.00000
     99      -4.9805      2.00000
    100      -4.9578      2.00000
    101      -3.7332      2.00000
    102      -3.4580      2.00000
    103      -3.2800      2.00000
    104      -2.3869      0.00000
    105      -2.2240      0.00000
    106      -0.9284      0.00000
    107      -0.8819      0.00000
    108      -0.8677      0.00000
    109      -0.5384      0.00000
    110      -0.2639      0.00000
    111      -0.2114      0.00000
    112       0.2518      0.00000
    113       0.2583      0.00000
    114       0.2605      0.00000
    115       0.5987      0.00000
    116       0.7919      0.00000
    117       0.9487      0.00000
    118       0.9744      0.00000
    119       1.0603      0.00000
    120       1.7322      0.00000
    121       1.7453      0.00000
    122       1.7674      0.00000
    123       1.8249      0.00000
    124       2.1110      0.00000
    125       2.1152      0.00000
    126       2.1177      0.00000
    127       2.2462      0.00000
    128       2.2480      0.00000
    129       2.3623      0.00000
    130       2.9988      0.00000
    131       3.0111      0.00000
    132       3.0360      0.00000


--------------------------------------------------------------------------------------------------------


 soft charge-density along one line, spin component           1
         0         1         2         3         4         5         6         7         8         9
 total charge-density along one line
 
 pseudopotential strength for first ion, spin component:           1
 10.222  13.594   0.000  -0.000   0.000  -0.000   0.000  -0.000
 13.594  18.076   0.000  -0.000   0.000  -0.000   0.000  -0.000
  0.000   0.000  -4.352  -0.000  -0.000   8.513   0.000   0.000
 -0.000  -0.000  -0.000  -4.344  -0.000   0.000   8.502   0.000
  0.000   0.000  -0.000  -0.000  -4.352   0.000   0.000   8.513
 -0.000  -0.000   8.513   0.000   0.000 -18.787  -0.000  -0.000
  0.000   0.000   0.000   8.502   0.000  -0.000 -18.776  -0.000
 -0.000  -0.000   0.000   0.000   8.513  -0.000  -0.000 -18.787
 total augmentation occupancy for first ion, spin component:           1
  8.358  -3.741   0.001   0.000   0.003   0.000   0.000   0.001
 -3.741   1.730  -0.002  -0.000  -0.003  -0.000   0.000  -0.000
  0.001  -0.002   1.840  -0.000  -0.001   0.174   0.000   0.000
  0.000  -0.000  -0.000   1.223  -0.000   0.000   0.078   0.000
  0.003  -0.003  -0.001  -0.000   1.839   0.000   0.000   0.174
  0.000  -0.000   0.174   0.000   0.000   0.018   0.000   0.000
  0.000   0.000   0.000   0.078   0.000   0.000   0.005   0.000
  0.001  -0.000   0.000   0.000   0.174   0.000   0.000   0.018


------------------------ aborting loop because EDIFF is reached ----------------------------------------


    CHARGE:  cpu time    0.4030: real time    0.4030
    FORLOC:  cpu time    0.0274: real time    0.0274
    FORNL :  cpu time    1.9632: real time    1.9638
    STRESS:  cpu time    3.2975: real time    3.2992
    FORCOR:  cpu time    0.1214: real time    0.1218
    FORHAR:  cpu time    0.0498: real time    0.0498
    MIXING:  cpu time    0.0038: real time    0.0038
    OFIELD:  cpu time    0.0001: real time    0.0001

  FORCE on cell =-STRESS in cart. coord.  units (eV):
  Direction    XX          YY          ZZ          XY          YZ          ZX
  --------------------------------------------------------------------------------------
  Alpha Z    82.54348    82.54348    82.54348
  Ewald   41234.59444 41234.82470-47952.73599     0.20784    -0.20647    -0.11920
  Hartree 40516.85341 40517.00882-39998.86240     0.14571    -0.18535    -0.10076
  E(xc)    -777.14877  -777.14853  -804.22659     0.00021     0.00002     0.00003
  Local  -83989.10804-83989.47209 85337.94860    -0.34664     0.39938     0.21504
  n-local  -203.94251  -203.93070  -194.70422     0.00503     0.00247    -0.00095
  augment   -12.37951   -12.37960   -14.04628    -0.00015    -0.00092     0.00020
  Kinetic  3164.15296  3164.10335  3596.34288    -0.01909    -0.01424     0.01279
  Fock        0.00000     0.00000     0.00000     0.00000     0.00000     0.00000
  -------------------------------------------------------------------------------------
  Total      15.56547    15.54943    52.25949    -0.00709    -0.00512     0.00713
  in kB       9.51704     9.50724    31.95251    -0.00434    -0.00313     0.00436
  external pressure =       16.99 kB  Pullay stress =        0.00 kB


 VOLUME and BASIS-vectors are now :
 -----------------------------------------------------------------------------
  energy-cutoff  :      400.00
  volume of cell :     2620.42
      direct lattice vectors                 reciprocal lattice vectors
    12.300000191  0.000000000  0.000000000     0.081300812 -0.046939053  0.000000000
     6.150000804 10.652112223  0.000000000     0.000000000  0.093878095  0.000000000
     0.000000000  0.000000000 20.000000000     0.000000000  0.000000000  0.050000000

  length of vectors
    12.300000191 12.300000191 20.000000000     0.093878095  0.093878095  0.050000000


 FORCES acting on ions
    electron-ion (+dipol)            ewald-force                    non-local-force                 convergence-correction
 -----------------------------------------------------------------------------------------------
   -.148E+01 -.854E+00 0.281E+01   0.135E+01 0.778E+00 -.280E+01   0.851E-01 0.490E-01 -.492E-03   -.841E-04 -.200E-04 0.254E-03
   0.148E+01 -.854E+00 0.283E+01   -.135E+01 0.778E+00 -.282E+01   -.855E-01 0.487E-01 0.106E-03   0.334E-03 -.123E-03 0.277E-03
   0.370E+01 0.642E+01 0.398E+01   -.374E+01 -.649E+01 -.392E+01   -.112E+00 0.785E-01 -.836E-01   -.220E-03 -.707E-04 0.381E-03
   0.318E-02 0.129E+02 0.497E+01   -.523E-03 -.131E+02 -.510E+01   -.355E-03 0.139E-01 0.981E-01   -.235E-03 0.120E-04 0.358E-03
   -.370E+01 0.642E+01 0.385E+01   0.374E+01 -.649E+01 -.380E+01   0.114E+00 0.776E-01 -.712E-01   0.111E-03 0.108E-03 0.254E-03
   -.268E-04 0.171E+01 0.282E+01   -.327E-05 -.156E+01 -.281E+01   -.136E-03 -.983E-01 0.892E-03   0.102E-03 -.295E-04 0.196E-03
   0.117E+02 0.673E+01 0.506E+01   -.113E+02 -.655E+01 -.510E+01   0.108E+00 0.623E-01 0.369E-01   -.107E-03 -.290E-03 0.417E-03
   0.210E+02 0.364E+02 0.139E+02   -.215E+02 -.373E+02 -.142E+02   0.647E+00 0.658E+00 0.313E+00   -.133E-03 -.307E-03 0.148E-02
   -.209E+02 0.362E+02 0.188E+02   0.214E+02 -.371E+02 -.192E+02   -.639E+00 0.655E+00 0.535E+00   0.156E-03 -.553E-04 0.299E-03
   -.117E+02 0.673E+01 0.491E+01   0.113E+02 -.655E+01 -.497E+01   -.108E+00 0.624E-01 0.547E-01   -.210E-03 -.188E-04 0.220E-03
   0.741E+01 -.760E-02 0.385E+01   -.749E+01 -.162E-03 -.380E+01   0.102E-01 -.137E+00 -.724E-01   -.339E-05 0.249E-03 0.280E-03
   0.418E+02 -.406E-01 0.188E+02   -.428E+02 -.927E-03 -.192E+02   0.887E+00 0.226E+00 0.531E+00   -.194E-03 0.267E-03 0.338E-03
   -.607E-02 0.169E-01 0.291E+03   -.521E-03 -.927E-03 -.346E+03   -.817E-03 -.467E-02 0.713E+01   -.274E-03 -.442E-04 0.249E-03
   -.418E+02 -.392E-01 0.187E+02   0.428E+02 -.162E-03 -.190E+02   -.886E+00 0.226E+00 0.546E+00   0.162E-03 -.276E-03 0.147E-03
   -.741E+01 -.768E-02 0.383E+01   0.749E+01 -.120E-03 -.378E+01   -.101E-01 -.137E+00 -.713E-01   0.146E-03 0.227E-03 0.254E-03
   0.111E+02 -.644E+01 0.483E+01   -.113E+02 0.655E+01 -.497E+01   0.118E-01 -.689E-02 0.112E+00   -.360E-05 0.112E-05 0.230E-03
   0.210E+02 -.362E+02 0.187E+02   -.214E+02 0.371E+02 -.190E+02   0.248E+00 -.880E+00 0.545E+00   -.427E-04 0.317E-03 0.163E-03
   -.210E+02 -.362E+02 0.187E+02   0.214E+02 0.371E+02 -.190E+02   -.248E+00 -.881E+00 0.545E+00   -.610E-04 0.625E-03 0.312E-03
   -.111E+02 -.644E+01 0.482E+01   0.113E+02 0.655E+01 -.496E+01   -.120E-01 -.684E-02 0.112E+00   0.238E-04 0.237E-03 0.229E-03
   0.271E-03 -.148E+01 0.283E+01   -.460E-04 0.156E+01 -.280E+01   -.366E-05 -.863E-01 -.149E-01   0.643E-04 -.207E-03 0.237E-03
   0.371E+01 -.642E+01 0.383E+01   -.374E+01 0.649E+01 -.378E+01   0.124E+00 0.601E-01 -.715E-01   0.697E-04 -.290E-03 0.231E-03
   -.183E-03 -.135E+02 0.491E+01   -.440E-04 0.131E+02 -.496E+01   0.123E-04 -.125E+00 0.525E-01   0.862E-04 -.135E-03 0.239E-03
   -.371E+01 -.642E+01 0.384E+01   0.374E+01 0.649E+01 -.379E+01   -.124E+00 0.601E-01 -.708E-01   -.824E-04 0.151E-03 0.250E-03
   -.128E+01 0.740E+00 0.285E+01   0.135E+01 -.778E+00 -.282E+01   -.752E-01 0.428E-01 -.157E-01   -.134E-03 0.138E-03 0.266E-03
   0.128E+01 0.741E+00 0.284E+01   -.135E+01 -.778E+00 -.281E+01   0.750E-01 0.430E-01 -.143E-01   0.434E-04 -.272E-04 0.286E-03
   -.204E-03 -.256E-03 0.252E+01   0.889E-04 0.127E-03 -.252E+01   -.477E-04 -.311E-04 -.103E-01   0.196E-03 -.170E-03 0.206E-03
   0.531E+01 0.407E+01 0.352E+01   -.514E+01 -.429E+01 -.348E+01   -.707E-01 0.337E-02 -.212E-01   0.928E-04 -.272E-03 0.329E-03
   0.608E+01 0.171E+02 0.765E+01   -.581E+01 -.170E+02 -.730E+01   -.647E-01 0.173E+00 -.340E-01   -.152E-04 -.243E-03 0.752E-03
   -.607E+01 0.171E+02 0.698E+01   0.581E+01 -.171E+02 -.660E+01   0.665E-01 0.162E+00 -.118E+00   -.186E-03 0.151E-03 0.311E-03
   -.531E+01 0.407E+01 0.343E+01   0.514E+01 -.429E+01 -.340E+01   0.712E-01 0.365E-02 -.241E-01   -.233E-04 0.139E-03 0.262E-03
   0.618E+01 0.256E+01 0.345E+01   -.629E+01 -.230E+01 -.342E+01   -.326E-01 -.636E-01 -.259E-01   0.189E-03 0.365E-04 0.270E-03
   0.283E+02 0.163E+02 0.134E+02   -.286E+02 -.165E+02 -.139E+02   -.160E+00 -.902E-01 0.227E+00   -.259E-04 -.340E-03 0.821E-03
   -.752E-02 0.878E+02 0.594E+02   -.708E-02 -.922E+02 -.671E+02   0.135E-01 -.644E+00 0.339E+01   0.231E-03 -.689E-03 0.383E-03
   -.283E+02 0.163E+02 0.127E+02   0.286E+02 -.165E+02 -.132E+02   0.157E+00 -.922E-01 0.145E+00   0.479E-04 -.335E-03 0.245E-03
   -.618E+01 0.256E+01 0.343E+01   0.629E+01 -.230E+01 -.340E+01   0.324E-01 -.637E-01 -.237E-01   -.219E-03 -.146E-03 0.215E-03
   0.179E+02 -.331E+01 0.692E+01   -.177E+02 0.349E+01 -.655E+01   0.107E+00 -.138E+00 -.124E+00   -.241E-03 0.379E-03 0.340E-03
   0.760E+02 -.439E+02 0.588E+02   -.799E+02 0.461E+02 -.664E+02   -.556E+00 0.321E+00 0.330E+01   -.328E-03 0.515E-03 0.586E-04
   -.760E+02 -.439E+02 0.587E+02   0.799E+02 0.461E+02 -.663E+02   0.551E+00 0.317E+00 0.330E+01   0.470E-03 0.128E-03 0.870E-05
   -.179E+02 -.331E+01 0.690E+01   0.177E+02 0.349E+01 -.652E+01   -.107E+00 -.138E+00 -.121E+00   0.160E-03 0.483E-03 0.254E-03
   -.462E-03 -.609E+00 0.296E+01   0.719E-04 0.845E+00 -.293E+01   0.722E-04 -.154E+00 -.522E-01   0.227E-03 0.332E-03 0.208E-03
   0.118E+02 -.138E+02 0.690E+01   -.119E+02 0.136E+02 -.652E+01   0.172E+00 -.233E-01 -.121E+00   -.638E-04 -.238E-04 0.283E-03
   -.438E-03 -.327E+02 0.127E+02   0.419E-04 0.330E+02 -.132E+02   0.632E-04 0.183E+00 0.145E+00   -.237E-03 0.287E-03 0.219E-03
   -.118E+02 -.138E+02 0.690E+01   0.119E+02 0.136E+02 -.652E+01   -.173E+00 -.234E-01 -.120E+00   0.413E-03 0.168E-03 0.323E-03
   -.385E+01 -.222E+01 0.285E+01   0.378E+01 0.218E+01 -.288E+01   -.199E-01 -.114E-01 0.128E-01   -.179E-03 -.126E-03 0.268E-03
   0.384E+01 -.222E+01 0.284E+01   -.378E+01 0.218E+01 -.288E+01   0.199E-01 -.115E-01 0.135E-01   0.156E-03 -.428E-03 0.243E-03
   0.873E+00 -.663E+01 0.343E+01   -.115E+01 0.660E+01 -.339E+01   0.389E-01 0.598E-01 -.239E-01   0.116E-03 -.307E-03 0.231E-03
   -.873E+00 -.663E+01 0.343E+01   0.115E+01 0.660E+01 -.340E+01   -.389E-01 0.598E-01 -.241E-01   0.129E-03 -.920E-04 0.277E-03
   -.526E+00 0.303E+00 0.298E+01   0.732E+00 -.422E+00 -.295E+01   -.134E+00 0.782E-01 -.547E-01   -.333E-04 0.876E-04 0.221E-03
   0.575E-03 0.444E+01 0.287E+01   -.218E-05 -.437E+01 -.291E+01   0.144E-03 0.233E-01 0.105E-01   -.302E-03 0.995E-04 0.263E-03
   0.526E+00 0.304E+00 0.296E+01   -.732E+00 -.422E+00 -.293E+01   0.134E+00 0.774E-01 -.526E-01   0.110E-03 -.214E-03 0.254E-03
   -.863E-01 -.160E+00 -.722E+03   0.959E-01 0.166E+00 0.846E+03   -.245E-02 -.867E-02 -.638E+02   -.432E-03 0.279E-04 0.144E-02
 -----------------------------------------------------------------------------------------------
   -.118E-01 0.701E-03 0.441E+02   0.214E-13 0.348E-13 -.341E-12   0.125E-01 -.396E-03 -.441E+02   -.234E-03 -.113E-03 0.165E-01
 
 
 POSITION                                       TOTAL-FORCE (eV/Angst)
 -----------------------------------------------------------------------------------
      0.00000      0.00000      8.35995        -0.047519     -0.027621      0.009087
      2.46000      0.00000      8.35995         0.046954     -0.028120      0.010307
      4.92000      0.00000      8.35995        -0.161139      0.015100     -0.031774
      7.38000      0.00000      8.35995         0.002055     -0.210367     -0.033105
      9.84000      0.00000      8.35995         0.158885      0.014565     -0.025147
      1.23000      2.13042      8.35995        -0.000074      0.054979      0.009267
      3.69000      2.13042      8.35995         0.428615      0.247206     -0.005836
      6.15000      2.13042      8.36995         0.088459     -0.205707      0.037267
      8.61000      2.13042      8.35995        -0.091384     -0.205970      0.159180
     11.07000      2.13042      8.35995        -0.428678      0.247270      0.000537
      2.46000      4.26084      8.35995        -0.066759     -0.144752     -0.025205
      4.92000      4.26084      8.35995        -0.128108      0.184535      0.158819
      7.38000      4.26084      8.35995        -0.007692      0.011273    -48.153503
      9.84000      4.26084      8.35995         0.129808      0.186393      0.164917
     12.30000      4.26084      8.35995         0.067093     -0.144918     -0.026198
      3.69000      6.39127      8.35995        -0.179574      0.103584     -0.027174
      6.15000      6.39127      8.35995        -0.224697      0.020747      0.164828
      8.61000      6.39127      8.35995         0.224879      0.018699      0.164181
     11.07000      6.39127      8.35995         0.179395      0.103660     -0.027097
     13.53000      6.39127      8.35995         0.000277     -0.013247      0.017687
      4.92000      8.52169      8.35995         0.092087      0.130625     -0.026180
      7.38000      8.52169      8.35995        -0.000137     -0.495455     -0.000012
      9.84000      8.52169      8.35995        -0.091948      0.130424     -0.026131
     12.30000      8.52169      8.35995        -0.011925      0.005179      0.018712
     14.76000      8.52169      8.35995         0.011701      0.006362      0.017722
      1.23000      0.71014      8.36012         0.000024     -0.000334     -0.006193
      3.69000      0.71014      8.36012         0.097921     -0.217215      0.014152
      6.15000      0.71014      8.36012         0.197011      0.256514      0.313619
      8.61000      0.71014      8.36012        -0.194176      0.249375      0.260562
     11.07000      0.71014      8.36012        -0.097110     -0.216960      0.009760
      2.46000      2.84056      8.36012        -0.139511      0.192561      0.004401
      4.92000      2.84056      8.36012        -0.439369     -0.257121     -0.297413
      7.38000      2.84056      8.36012        -0.000861     -5.081939     -4.289446
      9.84000      2.84056      8.36012         0.440220     -0.256689     -0.360124
     12.30000      2.84056      8.36012         0.139365      0.192852      0.011032
      3.69000      4.97099      8.36012         0.313058      0.043452      0.253209
      6.15000      4.97099      8.36012        -4.398627      2.537459     -4.348858
      8.61000      4.97099      8.36012         4.398632      2.536891     -4.350745
     11.07000      4.97099      8.36012        -0.313775      0.043136      0.257177
     13.53000      4.97099      8.36012        -0.000100      0.082418     -0.021610
      4.92000      7.10141      8.36012         0.119454     -0.293130      0.257081
      7.38000      7.10141      8.36012        -0.000579      0.510233     -0.355399
      9.84000      7.10141      8.36012        -0.119017     -0.293315      0.257095
     12.30000      7.10141      8.36012        -0.082026     -0.046311     -0.025956
     14.76000      7.10141      8.36012         0.081780     -0.047260     -0.026269
      6.15000      9.23183      8.36012        -0.236984      0.024534      0.010118
      8.61000      9.23183      8.36012         0.236731      0.024966      0.010047
     11.07000      9.23183      8.36012         0.071704     -0.041059     -0.026411
     13.53000      9.23183      8.36012         0.000407      0.096887     -0.030662
     15.99000      9.23183      8.36012        -0.071432     -0.041392     -0.022041
      7.38000      4.26084      9.36012         0.006689     -0.002998     59.977724
 -----------------------------------------------------------------------------------
    total drift:                                0.000455      0.000192      0.000300


--------------------------------------------------------------------------------------------------------



  FREE ENERGIE OF THE ION-ELECTRON SYSTEM (eV)
  ---------------------------------------------------
  free  energy   TOTEN  =      -454.34156885 eV

  energy  without entropy=     -454.34145554  energy(sigma->0) =     -454.34151220
 


--------------------------------------------------------------------------------------------------------


    POTLOK:  cpu time    0.1796: real time    0.1819


--------------------------------------------------------------------------------------------------------


 stress matrix after NEB project (eV)
     15.56547     -0.00709      0.00713
     -0.00709     15.54943     -0.00512
      0.00713     -0.00512     52.25949
  FORCES: max atom, RMS    59.977725   10.894997
  FORCE total and by dimension   77.805843   59.977724
  Stress total and by dimension   56.702060   52.259493
     LOOP+:  cpu time   46.9710: real time   47.0339
    4ORBIT:  cpu time    0.0000: real time    0.0000

 total amount of memory used by VASP MPI-rank0    90113. kBytes
=======================================================================

   base      :      30000. kBytes
   nonl-proj :       8674. kBytes
   fftplans  :      26248. kBytes
   grid      :      14579. kBytes
   one-center:         21. kBytes
   wavefun   :      10591. kBytes
 
  
  
 General timing and accounting informations for this job:
 ========================================================
  
                  Total CPU time used (sec):       54.630
                            User time (sec):       51.187
                          System time (sec):        3.443
                         Elapsed time (sec):       54.794
  
                   Maximum memory used (kb):      365780.
                   Average memory used (kb):           0.
  
                          Minor page faults:       115470
                          Major page faults:            0
                 Voluntary context switches:         1224
