   49   49    1    1
  0.2673898E+02  0.1230000E-08  0.1230000E-08  0.1000000E-08  0.5000000E-15
  1.000000000000000E-004
  CAR 
 vasp                                    
    196     51    124
 
  0.0000000E+00  0.1250000E+01  0.0000000E+00  0.1960784E-01
    1      -20.828503   1.000000
    2      -20.369081   1.000000
    3      -20.190080   1.000000
    4      -20.043070   1.000000
    5      -19.720210   1.000000
    6      -19.582518   1.000000
    7      -19.307432   1.000000
    8      -18.801502   1.000000
    9      -18.602798   1.000000
   10      -18.097191   1.000000
   11      -18.072993   1.000000
   12      -17.902719   1.000000
   13      -17.624824   1.000000
   14      -17.486979   1.000000
   15      -17.433005   1.000000
   16      -17.099624   1.000000
   17      -16.733750   1.000000
   18      -16.543364   1.000000
   19      -16.063530   1.000000
   20      -15.733415   1.000000
   21      -15.627562   1.000000
   22      -15.545662   1.000000
   23      -15.189451   1.000000
   24      -14.891767   1.000000
   25      -14.536674   1.000000
   26      -14.080494   1.000000
   27      -14.061551   1.000000
   28      -13.826649   1.000000
   29      -13.619659   1.000000
   30      -13.560673   1.000000
   31      -13.482859   1.000000
   32      -13.233417   1.000000
   33      -13.221184   1.000000
   34      -12.556249   1.000000
   35      -12.058376   1.000000
   36      -11.812909   1.000000
   37      -11.374515   1.000000
   38      -11.352693   1.000000
   39      -11.244263   1.000000
   40      -11.188774   1.000000
   41      -10.890985   1.000000
   42      -10.718437   1.000000
   43      -10.422487   1.000000
   44      -10.175383   1.000000
   45       -9.960931   1.000000
   46       -9.687856   1.000000
   47       -9.663322   1.000000
   48       -9.585943   1.000000
   49       -9.432019   1.000000
   50       -9.234986   1.000000
   51       -9.118828   1.000000
   52       -9.013408   1.000000
   53       -8.688931   1.000000
   54       -8.675454   1.000000
   55       -8.564354   1.000000
   56       -8.445203   1.000000
   57       -8.339173   1.000000
   58       -8.274994   1.000000
   59       -8.186672   1.000000
   60       -8.183916   1.000000
   61       -8.166188   1.000000
   62       -8.063732   1.000000
   63       -7.933203   1.000000
   64       -7.892930   1.000000
   65       -7.783503   1.000000
   66       -7.655784   1.000000
   67       -7.644061   1.000000
   68       -7.498316   1.000000
   69       -7.347645   1.000000
   70       -7.330332   1.000000
   71       -7.060411   1.000000
   72       -6.832970   1.000000
   73       -6.704106   1.000000
   74       -6.640126   1.000000
   75       -6.600762   1.000000
   76       -6.525167   1.000000
   77       -6.229953   1.000000
   78       -6.124488   1.000000
   79       -5.924872   1.000000
   80       -5.906332   1.000000
   81       -5.789177   1.000000
   82       -5.739889   1.000000
   83       -5.695224   1.000000
   84       -5.445283   1.000000
   85       -5.301790   1.000000
   86       -5.166868   1.000000
   87       -5.064291   1.000000
   88       -4.982776   1.000000
   89       -4.911288   1.000000
   90       -4.590936   1.000000
   91       -4.416594   1.000000
   92       -4.046332   1.000000
   93       -3.539216   1.000000
   94       -3.500482   1.000000
   95       -3.478560   1.000000
   96       -2.990147   1.000000
   97       -2.704964   1.000000
   98       -1.932305   0.998991
   99       -1.640287   0.000451
  100       -1.600604   0.000062
  101       -0.456295   0.000000
  102       -0.307990   0.000000
  103        0.083568   0.000000
  104        0.147826   0.000000
  105        0.181526   0.000000
  106        0.451278   0.000000
  107        0.769366   0.000000
  108        1.039241   0.000000
  109        1.462008   0.000000
  110        1.883475   0.000000
  111        2.216188   0.000000
  112        2.267405   0.000000
  113        2.268946   0.000000
  114        2.524283   0.000000
  115        2.709529   0.000000
  116        2.829206   0.000000
  117        2.878056   0.000000
  118        3.091928   0.000000
  119        3.471241   0.000000
  120        3.512441   0.000000
  121        3.553994   0.000000
  122        3.822622   0.000000
  123        4.087184   0.000000
  124        4.481065   0.000000
 
  0.0000000E+00  0.1225000E+01  0.0000000E+00  0.1960784E-01
    1      -20.838732   1.000000
    2      -20.336582   1.000000
    3      -20.178082   1.000000
    4      -20.036434   1.000000
    5      -19.754083   1.000000
    6      -19.622547   1.000000
    7      -19.343403   1.000000
    8      -18.744287   1.000000
    9      -18.554432   1.000000
   10      -18.083400   1.000000
   11      -18.059747   1.000000
   12      -17.874852   1.000000
   13      -17.601192   1.000000
   14      -17.500814   1.000000
   15      -17.500597   1.000000
   16      -17.136143   1.000000
   17      -16.785681   1.000000
   18      -16.606462   1.000000
   19      -16.112655   1.000000
   20      -15.644594   1.000000
   21      -15.550363   1.000000
   22      -15.485329   1.000000
   23      -15.155301   1.000000
   24      -14.893381   1.000000
   25      -14.522057   1.000000
   26      -14.103868   1.000000
   27      -14.072008   1.000000
   28      -13.774237   1.000000
   29      -13.669579   1.000000
   30      -13.579137   1.000000
   31      -13.578114   1.000000
   32      -13.259863   1.000000
   33      -13.181132   1.000000
   34      -12.588913   1.000000
   35      -12.121314   1.000000
   36      -11.889424   1.000000
   37      -11.331032   1.000000
   38      -11.278461   1.000000
   39      -11.173343   1.000000
   40      -11.161223   1.000000
   41      -10.838098   1.000000
   42      -10.664745   1.000000
   43      -10.424431   1.000000
   44      -10.181342   1.000000
   45       -9.946602   1.000000
   46       -9.722749   1.000000
   47       -9.678798   1.000000
   48       -9.641127   1.000000
   49       -9.455697   1.000000
   50       -9.258563   1.000000
   51       -9.131378   1.000000
   52       -8.996786   1.000000
   53       -8.736430   1.000000
   54       -8.626049   1.000000
   55       -8.524896   1.000000
   56       -8.456985   1.000000
   57       -8.324993   1.000000
   58       -8.279394   1.000000
   59       -8.189367   1.000000
   60       -8.177596   1.000000
   61       -8.168168   1.000000
   62       -8.035788   1.000000
   63       -7.908429   1.000000
   64       -7.873483   1.000000
   65       -7.823847   1.000000
   66       -7.689500   1.000000
   67       -7.667718   1.000000
   68       -7.545330   1.000000
   69       -7.395163   1.000000
   70       -7.359888   1.000000
   71       -7.048788   1.000000
   72       -6.815670   1.000000
   73       -6.689470   1.000000
   74       -6.637411   1.000000
   75       -6.545214   1.000000
   76       -6.467153   1.000000
   77       -6.212825   1.000000
   78       -6.127424   1.000000
   79       -5.917455   1.000000
   80       -5.877429   1.000000
   81       -5.819046   1.000000
   82       -5.715537   1.000000
   83       -5.711037   1.000000
   84       -5.411658   1.000000
   85       -5.311013   1.000000
   86       -5.251344   1.000000
   87       -5.037278   1.000000
   88       -4.969963   1.000000
   89       -4.959072   1.000000
   90       -4.640379   1.000000
   91       -4.469733   1.000000
   92       -4.072215   1.000000
   93       -3.487246   1.000000
   94       -3.441102   1.000000
   95       -3.410283   1.000000
   96       -2.981335   1.000000
   97       -2.731230   1.000000
   98       -1.932578   0.999005
   99       -1.632046   0.000299
  100       -1.598682   0.000056
  101       -0.441566   0.000000
  102       -0.305654   0.000000
  103        0.046025   0.000000
  104        0.095651   0.000000
  105        0.104310   0.000000
  106        0.471941   0.000000
  107        0.815076   0.000000
  108        1.095090   0.000000
  109        1.488982   0.000000
  110        1.868397   0.000000
  111        2.174401   0.000000
  112        2.274676   0.000000
  113        2.361344   0.000000
  114        2.572240   0.000000
  115        2.669673   0.000000
  116        2.845923   0.000000
  117        2.894813   0.000000
  118        3.010701   0.000000
  119        3.424362   0.000000
  120        3.464167   0.000000
  121        3.542847   0.000000
  122        3.747838   0.000000
  123        4.187609   0.000000
  124        4.344164   0.000000
 
  0.0000000E+00  0.1200000E+01  0.0000000E+00  0.1960784E-01
    1      -20.847936   1.000000
    2      -20.303109   1.000000
    3      -20.164983   1.000000
    4      -20.029623   1.000000
    5      -19.786764   1.000000
    6      -19.663012   1.000000
    7      -19.376708   1.000000
    8      -18.686061   1.000000
    9      -18.505130   1.000000
   10      -18.092812   1.000000
   11      -18.037942   1.000000
   12      -17.830925   1.000000
   13      -17.614870   1.000000
   14      -17.528826   1.000000
   15      -17.522929   1.000000
   16      -17.162171   1.000000
   17      -16.836553   1.000000
   18      -16.671927   1.000000
   19      -16.159480   1.000000
   20      -15.556814   1.000000
   21      -15.474028   1.000000
   22      -15.426187   1.000000
   23      -15.122042   1.000000
   24      -14.896165   1.000000
   25      -14.509313   1.000000
   26      -14.125948   1.000000
   27      -14.088873   1.000000
   28      -13.752191   1.000000
   29      -13.726355   1.000000
   30      -13.665815   1.000000
   31      -13.564917   1.000000
   32      -13.280641   1.000000
   33      -13.137040   1.000000
   34      -12.615173   1.000000
   35      -12.183674   1.000000
   36      -11.972525   1.000000
   37      -11.356050   1.000000
   38      -11.184183   1.000000
   39      -11.111888   1.000000
   40      -11.075338   1.000000
   41      -10.777749   1.000000
   42      -10.614917   1.000000
   43      -10.426454   1.000000
   44      -10.187121   1.000000
   45       -9.944998   1.000000
   46       -9.784580   1.000000
   47       -9.704397   1.000000
   48       -9.682804   1.000000
   49       -9.467638   1.000000
   50       -9.267816   1.000000
   51       -9.142660   1.000000
   52       -8.979770   1.000000
   53       -8.783794   1.000000
   54       -8.609778   1.000000
   55       -8.484253   1.000000
   56       -8.434216   1.000000
   57       -8.329758   1.000000
   58       -8.309183   1.000000
   59       -8.190960   1.000000
   60       -8.167966   1.000000
   61       -8.128298   1.000000
   62       -8.005551   1.000000
   63       -7.884201   1.000000
   64       -7.863132   1.000000
   65       -7.854716   1.000000
   66       -7.735630   1.000000
   67       -7.679421   1.000000
   68       -7.588721   1.000000
   69       -7.439585   1.000000
   70       -7.391294   1.000000
   71       -7.055629   1.000000
   72       -6.798817   1.000000
   73       -6.728731   1.000000
   74       -6.569502   1.000000
   75       -6.491812   1.000000
   76       -6.407936   1.000000
   77       -6.194073   1.000000
   78       -6.130459   1.000000
   79       -5.927424   1.000000
   80       -5.851294   1.000000
   81       -5.849814   1.000000
   82       -5.727987   1.000000
   83       -5.670504   1.000000
   84       -5.379231   1.000000
   85       -5.332910   1.000000
   86       -5.329552   1.000000
   87       -5.011965   1.000000
   88       -4.995563   1.000000
   89       -4.957957   1.000000
   90       -4.689212   1.000000
   91       -4.526029   1.000000
   92       -4.099240   1.000000
   93       -3.436232   1.000000
   94       -3.384541   1.000000
   95       -3.346252   1.000000
   96       -2.974352   1.000000
   97       -2.759605   1.000000
   98       -1.932223   0.998987
   99       -1.624005   0.000200
  100       -1.596794   0.000051
  101       -0.425593   0.000000
  102       -0.303232   0.000000
  103        0.007406   0.000000
  104        0.034296   0.000000
  105        0.044518   0.000000
  106        0.484874   0.000000
  107        0.875145   0.000000
  108        1.151586   0.000000
  109        1.514844   0.000000
  110        1.854913   0.000000
  111        2.116103   0.000000
  112        2.265860   0.000000
  113        2.471501   0.000000
  114        2.621791   0.000000
  115        2.622226   0.000000
  116        2.864212   0.000000
  117        2.913232   0.000000
  118        2.995695   0.000000
  119        3.379014   0.000000
  120        3.417699   0.000000
  121        3.529839   0.000000
  122        3.671935   0.000000
  123        4.215139   0.000000
  124        4.508431   0.000000
 
  0.0000000E+00  0.1175000E+01  0.0000000E+00  0.1960784E-01
    1      -20.856094   1.000000
    2      -20.268745   1.000000
    3      -20.150815   1.000000
    4      -20.022794   1.000000
    5      -19.818213   1.000000
    6      -19.703810   1.000000
    7      -19.406977   1.000000
    8      -18.626874   1.000000
    9      -18.455300   1.000000
   10      -18.101240   1.000000
   11      -18.028213   1.000000
   12      -17.775169   1.000000
   13      -17.676224   1.000000
   14      -17.552345   1.000000
   15      -17.507353   1.000000
   16      -17.178234   1.000000
   17      -16.886276   1.000000
   18      -16.739480   1.000000
   19      -16.202891   1.000000
   20      -15.470676   1.000000
   21      -15.399325   1.000000
   22      -15.368507   1.000000
   23      -15.090604   1.000000
   24      -14.900453   1.000000
   25      -14.498603   1.000000
   26      -14.146500   1.000000
   27      -14.108944   1.000000
   28      -13.798462   1.000000
   29      -13.770297   1.000000
   30      -13.734294   1.000000
   31      -13.510908   1.000000
   32      -13.295121   1.000000
   33      -13.090573   1.000000
   34      -12.635201   1.000000
   35      -12.245250   1.000000
   36      -12.060290   1.000000
   37      -11.395838   1.000000
   38      -11.091337   1.000000
   39      -11.032314   1.000000
   40      -10.987684   1.000000
   41      -10.715321   1.000000
   42      -10.569757   1.000000
   43      -10.428412   1.000000
   44      -10.193255   1.000000
   45       -9.960593   1.000000
   46       -9.859367   1.000000
   47       -9.735949   1.000000
   48       -9.723002   1.000000
   49       -9.465192   1.000000
   50       -9.263802   1.000000
   51       -9.152650   1.000000
   52       -8.962827   1.000000
   53       -8.829940   1.000000
   54       -8.631952   1.000000
   55       -8.442513   1.000000
   56       -8.389926   1.000000
   57       -8.371969   1.000000
   58       -8.292041   1.000000
   59       -8.190652   1.000000
   60       -8.158172   1.000000
   61       -8.078961   1.000000
   62       -7.976275   1.000000
   63       -7.900686   1.000000
   64       -7.861907   1.000000
   65       -7.837727   1.000000
   66       -7.782098   1.000000
   67       -7.691234   1.000000
   68       -7.627328   1.000000
   69       -7.480225   1.000000
   70       -7.424408   1.000000
   71       -7.086843   1.000000
   72       -6.782687   1.000000
   73       -6.751162   1.000000
   74       -6.500668   1.000000
   75       -6.440510   1.000000
   76       -6.348076   1.000000
   77       -6.175526   1.000000
   78       -6.133572   1.000000
   79       -5.936186   1.000000
   80       -5.881623   1.000000
   81       -5.841474   1.000000
   82       -5.745377   1.000000
   83       -5.610767   1.000000
   84       -5.421738   1.000000
   85       -5.357302   1.000000
   86       -5.337854   1.000000
   87       -5.019648   1.000000
   88       -4.988823   1.000000
   89       -4.946996   1.000000
   90       -4.736902   1.000000
   91       -4.584734   1.000000
   92       -4.125742   1.000000
   93       -3.385917   1.000000
   94       -3.330858   1.000000
   95       -3.287149   1.000000
   96       -2.969801   1.000000
   97       -2.789985   1.000000
   98       -1.931134   0.998930
   99       -1.616460   0.000137
  100       -1.595027   0.000047
  101       -0.408430   0.000000
  102       -0.300604   0.000000
  103       -0.041870   0.000000
  104       -0.017747   0.000000
  105       -0.004122   0.000000
  106        0.492123   0.000000
  107        0.946989   0.000000
  108        1.209191   0.000000
  109        1.539292   0.000000
  110        1.842975   0.000000
  111        2.055922   0.000000
  112        2.236651   0.000000
  113        2.569120   0.000000
  114        2.584988   0.000000
  115        2.672787   0.000000
  116        2.884125   0.000000
  117        2.933258   0.000000
  118        3.011247   0.000000
  119        3.335065   0.000000
  120        3.372684   0.000000
  121        3.519575   0.000000
  122        3.594996   0.000000
  123        4.223185   0.000000
  124        4.416798   0.000000
 
  0.0000000E+00  0.1150000E+01  0.0000000E+00  0.1960784E-01
    1      -20.863188   1.000000
    2      -20.233578   1.000000
    3      -20.135622   1.000000
    4      -20.016127   1.000000
    5      -19.848386   1.000000
    6      -19.744810   1.000000
    7      -19.433912   1.000000
    8      -18.566782   1.000000
    9      -18.405377   1.000000
   10      -18.108731   1.000000
   11      -18.025781   1.000000
   12      -17.745946   1.000000
   13      -17.714605   1.000000
   14      -17.585042   1.000000
   15      -17.475504   1.000000
   16      -17.186319   1.000000
   17      -16.934705   1.000000
   18      -16.808792   1.000000
   19      -16.242088   1.000000
   20      -15.387259   1.000000
   21      -15.327278   1.000000
   22      -15.312706   1.000000
   23      -15.061831   1.000000
   24      -14.906617   1.000000
   25      -14.490415   1.000000
   26      -14.165367   1.000000
   27      -14.130844   1.000000
   28      -13.882114   1.000000
   29      -13.804362   1.000000
   30      -13.784830   1.000000
   31      -13.449279   1.000000
   32      -13.294984   1.000000
   33      -13.042664   1.000000
   34      -12.649778   1.000000
   35      -12.305711   1.000000
   36      -12.151366   1.000000
   37      -11.436458   1.000000
   38      -10.999621   1.000000
   39      -10.947097   1.000000
   40      -10.899395   1.000000
   41      -10.653699   1.000000
   42      -10.530096   1.000000
   43      -10.430235   1.000000
   44      -10.200977   1.000000
   45       -9.994865   1.000000
   46       -9.939136   1.000000
   47       -9.769278   1.000000
   48       -9.765530   1.000000
   49       -9.448757   1.000000
   50       -9.249266   1.000000
   51       -9.161335   1.000000
   52       -8.949682   1.000000
   53       -8.874663   1.000000
   54       -8.664968   1.000000
   55       -8.450047   1.000000
   56       -8.399764   1.000000
   57       -8.302760   1.000000
   58       -8.273598   1.000000
   59       -8.182520   1.000000
   60       -8.148524   1.000000
   61       -8.028217   1.000000
   62       -7.949205   1.000000
   63       -7.936922   1.000000
   64       -7.841935   1.000000
   65       -7.829172   1.000000
   66       -7.822392   1.000000
   67       -7.703336   1.000000
   68       -7.660018   1.000000
   69       -7.516739   1.000000
   70       -7.459159   1.000000
   71       -7.140842   1.000000
   72       -6.767528   1.000000
   73       -6.756980   1.000000
   74       -6.430690   1.000000
   75       -6.391251   1.000000
   76       -6.287733   1.000000
   77       -6.158240   1.000000
   78       -6.136602   1.000000
   79       -5.943838   1.000000
   80       -5.914120   1.000000
   81       -5.840413   1.000000
   82       -5.762326   1.000000
   83       -5.548250   1.000000
   84       -5.503138   1.000000
   85       -5.388882   1.000000
   86       -5.302146   1.000000
   87       -5.033176   1.000000
   88       -4.968178   1.000000
   89       -4.937189   1.000000
   90       -4.784339   1.000000
   91       -4.646353   1.000000
   92       -4.151108   1.000000
   93       -3.336397   1.000000
   94       -3.280317   1.000000
   95       -3.233777   1.000000
   96       -2.968306   1.000000
   97       -2.822268   1.000000
   98       -1.929458   0.998837
   99       -1.609551   0.000097
  100       -1.593378   0.000043
  101       -0.390161   0.000000
  102       -0.297647   0.000000
  103       -0.098917   0.000000
  104       -0.053805   0.000000
  105       -0.049256   0.000000
  106        0.495637   0.000000
  107        1.027601   0.000000
  108        1.266866   0.000000
  109        1.561619   0.000000
  110        1.832647   0.000000
  111        1.995446   0.000000
  112        2.184347   0.000000
  113        2.524044   0.000000
  114        2.695348   0.000000
  115        2.725039   0.000000
  116        2.905574   0.000000
  117        2.954530   0.000000
  118        3.062205   0.000000
  119        3.292594   0.000000
  120        3.328799   0.000000
  121        3.509437   0.000000
  122        3.525468   0.000000
  123        4.396065   0.000000
  124        4.577507   0.000000
 
  0.0000000E+00  0.1125000E+01  0.0000000E+00  0.1960784E-01
    1      -20.869207   1.000000
    2      -20.197750   1.000000
    3      -20.119483   1.000000
    4      -20.009810   1.000000
    5      -19.877203   1.000000
    6      -19.785838   1.000000
    7      -19.457255   1.000000
    8      -18.505870   1.000000
    9      -18.355902   1.000000
   10      -18.115383   1.000000
   11      -18.027885   1.000000
   12      -17.816147   1.000000
   13      -17.668515   1.000000
   14      -17.602096   1.000000
   15      -17.441182   1.000000
   16      -17.189044   1.000000
   17      -16.981655   1.000000
   18      -16.879419   1.000000
   19      -16.276425   1.000000
   20      -15.308102   1.000000
   21      -15.259174   1.000000
   22      -15.259076   1.000000
   23      -15.036397   1.000000
   24      -14.914993   1.000000
   25      -14.485378   1.000000
   26      -14.182315   1.000000
   27      -14.153489   1.000000
   28      -13.965772   1.000000
   29      -13.839590   1.000000
   30      -13.826151   1.000000
   31      -13.415484   1.000000
   32      -13.257917   1.000000
   33      -12.994109   1.000000
   34      -12.660341   1.000000
   35      -12.364692   1.000000
   36      -12.244338   1.000000
   37      -11.473646   1.000000
   38      -10.908625   1.000000
   39      -10.859675   1.000000
   40      -10.811425   1.000000
   41      -10.594948   1.000000
   42      -10.496606   1.000000
   43      -10.431647   1.000000
   44      -10.212336   1.000000
   45      -10.045310   1.000000
   46      -10.021625   1.000000
   47       -9.808308   1.000000
   48       -9.802889   1.000000
   49       -9.420759   1.000000
   50       -9.227335   1.000000
   51       -9.168754   1.000000
   52       -8.946743   1.000000
   53       -8.916929   1.000000
   54       -8.691588   1.000000
   55       -8.507104   1.000000
   56       -8.356112   1.000000
   57       -8.266340   1.000000
   58       -8.253901   1.000000
   59       -8.139552   1.000000
   60       -8.139305   1.000000
   61       -7.977791   1.000000
   62       -7.971621   1.000000
   63       -7.924340   1.000000
   64       -7.876622   1.000000
   65       -7.824348   1.000000
   66       -7.808958   1.000000
   67       -7.715763   1.000000
   68       -7.686329   1.000000
   69       -7.548584   1.000000
   70       -7.495361   1.000000
   71       -7.211170   1.000000
   72       -6.753934   1.000000
   73       -6.752527   1.000000
   74       -6.359730   1.000000
   75       -6.344112   1.000000
   76       -6.227408   1.000000
   77       -6.142824   1.000000
   78       -6.139463   1.000000
   79       -5.950329   1.000000
   80       -5.947322   1.000000
   81       -5.844296   1.000000
   82       -5.778219   1.000000
   83       -5.584056   1.000000
   84       -5.506445   1.000000
   85       -5.401410   1.000000
   86       -5.264882   1.000000
   87       -5.039046   1.000000
   88       -4.950317   1.000000
   89       -4.928693   1.000000
   90       -4.831020   1.000000
   91       -4.710474   1.000000
   92       -4.174240   1.000000
   93       -3.287792   1.000000
   94       -3.233134   1.000000
   95       -3.186859   1.000000
   96       -2.969993   1.000000
   97       -2.855759   1.000000
   98       -1.927167   0.998696
   99       -1.603392   0.000071
  100       -1.591934   0.000040
  101       -0.370683   0.000000
  102       -0.294236   0.000000
  103       -0.150679   0.000000
  104       -0.090288   0.000000
  105       -0.086712   0.000000
  106        0.496871   0.000000
  107        1.114979   0.000000
  108        1.324858   0.000000
  109        1.581529   0.000000
  110        1.823912   0.000000
  111        1.934694   0.000000
  112        2.111558   0.000000
  113        2.487114   0.000000
  114        2.778445   0.000000
  115        2.806141   0.000000
  116        2.928652   0.000000
  117        2.977400   0.000000
  118        3.110184   0.000000
  119        3.251810   0.000000
  120        3.285670   0.000000
  121        3.456604   0.000000
  122        3.499216   0.000000
  123        4.035482   0.000000
  124        4.520941   0.000000
 
  0.0000000E+00  0.1100000E+01  0.0000000E+00  0.1960784E-01
    1      -20.874142   1.000000
    2      -20.161495   1.000000
    3      -20.102543   1.000000
    4      -20.004016   1.000000
    5      -19.904515   1.000000
    6      -19.826644   1.000000
    7      -19.476768   1.000000
    8      -18.444316   1.000000
    9      -18.307657   1.000000
   10      -18.121447   1.000000
   11      -18.033481   1.000000
   12      -17.885151   1.000000
   13      -17.682889   1.000000
   14      -17.556183   1.000000
   15      -17.406036   1.000000
   16      -17.188930   1.000000
   17      -17.026687   1.000000
   18      -16.950689   1.000000
   19      -16.305351   1.000000
   20      -15.236066   1.000000
   21      -15.207611   1.000000
   22      -15.196539   1.000000
   23      -15.014934   1.000000
   24      -14.925932   1.000000
   25      -14.484084   1.000000
   26      -14.197055   1.000000
   27      -14.175525   1.000000
   28      -14.044027   1.000000
   29      -13.870352   1.000000
   30      -13.860569   1.000000
   31      -13.414016   1.000000
   32      -13.183288   1.000000
   33      -12.945708   1.000000
   34      -12.669009   1.000000
   35      -12.421380   1.000000
   36      -12.337246   1.000000
   37      -11.505589   1.000000
   38      -10.818237   1.000000
   39      -10.771618   1.000000
   40      -10.724859   1.000000
   41      -10.541315   1.000000
   42      -10.469709   1.000000
   43      -10.432189   1.000000
   44      -10.230329   1.000000
   45      -10.107701   1.000000
   46      -10.105779   1.000000
   47       -9.847286   1.000000
   48       -9.835784   1.000000
   49       -9.384315   1.000000
   50       -9.200740   1.000000
   51       -9.174792   1.000000
   52       -8.960458   1.000000
   53       -8.956136   1.000000
   54       -8.702657   1.000000
   55       -8.559128   1.000000
   56       -8.311717   1.000000
   57       -8.268739   1.000000
   58       -8.233038   1.000000
   59       -8.130866   1.000000
   60       -8.059234   1.000000
   61       -8.004706   1.000000
   62       -7.928656   1.000000
   63       -7.924308   1.000000
   64       -7.901536   1.000000
   65       -7.808824   1.000000
   66       -7.797275   1.000000
   67       -7.728314   1.000000
   68       -7.706239   1.000000
   69       -7.575393   1.000000
   70       -7.532617   1.000000
   71       -7.291674   1.000000
   72       -6.743598   1.000000
   73       -6.742102   1.000000
   74       -6.298959   1.000000
   75       -6.287949   1.000000
   76       -6.167737   1.000000
   77       -6.141915   1.000000
   78       -6.129567   1.000000
   79       -5.981117   1.000000
   80       -5.955679   1.000000
   81       -5.852393   1.000000
   82       -5.792313   1.000000
   83       -5.664989   1.000000
   84       -5.520380   1.000000
   85       -5.358577   1.000000
   86       -5.226665   1.000000
   87       -5.040270   1.000000
   88       -4.935411   1.000000
   89       -4.921592   1.000000
   90       -4.876754   1.000000
   91       -4.776876   1.000000
   92       -4.194383   1.000000
   93       -3.240258   1.000000
   94       -3.189426   1.000000
   95       -3.146625   1.000000
   96       -2.975624   1.000000
   97       -2.891359   1.000000
   98       -1.924632   0.998520
   99       -1.597977   0.000054
  100       -1.590668   0.000038
  101       -0.349462   0.000000
  102       -0.289672   0.000000
  103       -0.194502   0.000000
  104       -0.126165   0.000000
  105       -0.117584   0.000000
  106        0.497090   0.000000
  107        1.207563   0.000000
  108        1.383128   0.000000
  109        1.598683   0.000000
  110        1.816743   0.000000
  111        1.874205   0.000000
  112        2.024200   0.000000
  113        2.462026   0.000000
  114        2.833101   0.000000
  115        2.953016   0.000000
  116        2.939957   0.000000
  117        3.001845   0.000000
  118        3.159024   0.000000
  119        3.212996   0.000000
  120        3.243903   0.000000
  121        3.391960   0.000000
  122        3.493323   0.000000
  123        4.463711   0.000000
  124        4.545803   0.000000
 
  0.0000000E+00  0.1075000E+01  0.0000000E+00  0.1960784E-01
    1      -20.877985   1.000000
    2      -20.125282   1.000000
    3      -20.085114   1.000000
    4      -19.998829   1.000000
    5      -19.930017   1.000000
    6      -19.866845   1.000000
    7      -19.492234   1.000000
    8      -18.382437   1.000000
    9      -18.261834   1.000000
   10      -18.127593   1.000000
   11      -18.042416   1.000000
   12      -17.951537   1.000000
   13      -17.714617   1.000000
   14      -17.488345   1.000000
   15      -17.371225   1.000000
   16      -17.188537   1.000000
   17      -17.069063   1.000000
   18      -17.021363   1.000000
   19      -16.328413   1.000000