       N       E                     dE             d eps       ncg     rms          rms(c)
DAV:   1     0.124921062927E+04    0.12492E+04   -0.69067E+04 12896   0.104E+03
DAV:   2    -0.253771112212E+03   -0.15030E+04   -0.14225E+04 18344   0.257E+02
DAV:   3    -0.479102061060E+03   -0.22533E+03   -0.22324E+03 15160   0.104E+02
DAV:   4    -0.485870604896E+03   -0.67685E+01   -0.67192E+01 15428   0.219E+01
DAV:   5    -0.486077028813E+03   -0.20642E+00   -0.20597E+00 16912   0.338E+00
RMM:   6    -0.486082108580E+03   -0.50798E-02   -0.50798E-02 13766   0.590E-01
RMM:   7    -0.486082728172E+03   -0.61959E-03   -0.61170E-03 19622   0.165E-01
RMM:   8    -0.486082734903E+03   -0.67302E-05   -0.69781E-05 16698   0.131E-02
RMM:   9    -0.486082735268E+03   -0.36503E-06   -0.35152E-06 10710   0.377E-03
   1 F= -.48608274E+03 E0= -.48608233E+03  d E =-.815287E-03
