  51  51   0   0
  0.5138078E+02  0.1230000E-08  0.1230000E-08  0.2000000E-08  0.5000000E-15
  1.000000000000000E-004
  CAR 
                                         
      5.97173189    -33.53706978  301     -3.01715598      1.00000000
    -33.537  0.0000E+00  0.0000E+00
    -33.405  0.0000E+00  0.0000E+00
    -33.274  0.0000E+00  0.0000E+00
    -33.142  0.0000E+00  0.0000E+00
    -33.010  0.0000E+00  0.0000E+00
    -32.879  0.0000E+00  0.0000E+00
    -32.747  0.0000E+00  0.0000E+00
    -32.615  0.0000E+00  0.0000E+00
    -32.484  0.0000E+00  0.0000E+00
    -32.352  0.0000E+00  0.0000E+00
    -32.220  0.0000E+00  0.0000E+00
    -32.088  0.0000E+00  0.0000E+00
    -31.957  0.8225E-08  0.1083E-08
    -31.825  0.1344E+00  0.1771E-01
    -31.693  0.1372E+02  0.1824E+01
    -31.562  0.1336E+01  0.2000E+01
    -31.430  0.2894E-05  0.2000E+01
    -31.298  0.0000E+00  0.2000E+01
    -31.167  0.0000E+00  0.2000E+01
    -31.035  0.0000E+00  0.2000E+01
    -30.903  0.0000E+00  0.2000E+01
    -30.771  0.0000E+00  0.2000E+01
    -30.640  0.0000E+00  0.2000E+01
    -30.508  0.0000E+00  0.2000E+01
    -30.376  0.0000E+00  0.2000E+01
    -30.245  0.0000E+00  0.2000E+01
    -30.113  0.0000E+00  0.2000E+01
    -29.981  0.0000E+00  0.2000E+01
    -29.850  0.0000E+00  0.2000E+01
    -29.718  0.0000E+00  0.2000E+01
    -29.586  0.0000E+00  0.2000E+01
    -29.454  0.0000E+00  0.2000E+01
    -29.323  0.0000E+00  0.2000E+01
    -29.191  0.0000E+00  0.2000E+01
    -29.059  0.0000E+00  0.2000E+01
    -28.928  0.0000E+00  0.2000E+01
    -28.796  0.0000E+00  0.2000E+01
    -28.664  0.0000E+00  0.2000E+01
    -28.533  0.0000E+00  0.2000E+01
    -28.401  0.0000E+00  0.2000E+01
    -28.269  0.0000E+00  0.2000E+01
    -28.138  0.0000E+00  0.2000E+01
    -28.006  0.0000E+00  0.2000E+01
    -27.874  0.0000E+00  0.2000E+01
    -27.742  0.0000E+00  0.2000E+01
    -27.611  0.0000E+00  0.2000E+01
    -27.479  0.0000E+00  0.2000E+01
    -27.347  0.0000E+00  0.2000E+01
    -27.216  0.0000E+00  0.2000E+01
    -27.084  0.0000E+00  0.2000E+01
    -26.952  0.0000E+00  0.2000E+01
    -26.821  0.0000E+00  0.2000E+01
    -26.689  0.0000E+00  0.2000E+01
    -26.557  0.0000E+00  0.2000E+01
    -26.425  0.0000E+00  0.2000E+01
    -26.294  0.0000E+00  0.2000E+01
    -26.162  0.0000E+00  0.2000E+01
    -26.030  0.0000E+00  0.2000E+01
    -25.899  0.0000E+00  0.2000E+01
    -25.767  0.0000E+00  0.2000E+01
    -25.635  0.0000E+00  0.2000E+01
    -25.504  0.0000E+00  0.2000E+01
    -25.372  0.0000E+00  0.2000E+01
    -25.240  0.0000E+00  0.2000E+01
    -25.109  0.0000E+00  0.2000E+01
    -24.977  0.0000E+00  0.2000E+01
    -24.845  0.0000E+00  0.2000E+01
    -24.713  0.0000E+00  0.2000E+01
    -24.582  0.0000E+00  0.2000E+01
    -24.450  0.0000E+00  0.2000E+01
    -24.318  0.0000E+00  0.2000E+01
    -24.187  0.0000E+00  0.2000E+01
    -24.055  0.0000E+00  0.2000E+01
    -23.923  0.0000E+00  0.2000E+01
    -23.792  0.0000E+00  0.2000E+01
    -23.660  0.0000E+00  0.2000E+01
    -23.528  0.0000E+00  0.2000E+01
    -23.396  0.0000E+00  0.2000E+01
    -23.265  0.0000E+00  0.2000E+01
    -23.133  0.0000E+00  0.2000E+01
    -23.001  0.0000E+00  0.2000E+01
    -22.870  0.0000E+00  0.2000E+01
    -22.738  0.0000E+00  0.2000E+01
    -22.606  0.0000E+00  0.2000E+01
    -22.475  0.6238E-08  0.2000E+01
    -22.343  0.3356E-01  0.2004E+01
    -22.211  0.4171E+01  0.2554E+01
    -22.080  0.9349E+01  0.3785E+01
    -21.948  0.4972E+01  0.4440E+01
    -21.816  0.1063E+02  0.5840E+01
    -21.684  0.5500E+01  0.6564E+01
    -21.553  0.7835E+01  0.7596E+01
    -21.421  0.1254E+02  0.9248E+01
    -21.289  0.5702E+01  0.9999E+01
    -21.158  0.3715E+01  0.1049E+02
    -21.026  0.9031E+01  0.1168E+02
    -20.894  0.1091E+02  0.1311E+02
    -20.763  0.1004E+02  0.1444E+02
    -20.631  0.8466E+01  0.1555E+02
    -20.499  0.1859E+00  0.1558E+02
    -20.367  0.1302E+02  0.1729E+02
    -20.236  0.4026E+01  0.1782E+02
    -20.104  0.1850E+02  0.2026E+02
    -19.972  0.1429E+01  0.2045E+02
    -19.841  0.3475E+01  0.2090E+02
    -19.709  0.1362E+02  0.2270E+02
    -19.577  0.8701E+01  0.2384E+02
    -19.446  0.6242E+01  0.2466E+02
    -19.314  0.6552E+01  0.2553E+02
    -19.182  0.1421E+02  0.2740E+02
    -19.051  0.7549E+01  0.2839E+02
    -18.919  0.4719E+01  0.2902E+02
    -18.787  0.5317E+01  0.2972E+02
    -18.655  0.5153E+01  0.3039E+02
    -18.524  0.1391E+02  0.3223E+02
    -18.392  0.1128E+02  0.3371E+02
    -18.260  0.8858E+01  0.3488E+02
    -18.129  0.4609E+01  0.3549E+02
    -17.997  0.1554E+02  0.3753E+02
    -17.865  0.4747E+01  0.3816E+02
    -17.734  0.3756E+01  0.3865E+02
    -17.602  0.5714E+01  0.3940E+02
    -17.470  0.1579E+02  0.4148E+02
    -17.338  0.4112E+01  0.4203E+02
    -17.207  0.2146E+02  0.4485E+02
    -17.075  0.6886E+01  0.4576E+02
    -16.943  0.3516E+01  0.4622E+02
    -16.812  0.8708E+01  0.4737E+02
    -16.680  0.4438E+01  0.4795E+02
    -16.548  0.8683E+01  0.4910E+02
    -16.417  0.8853E+01  0.5026E+02
    -16.285  0.3086E+01  0.5067E+02
    -16.153  0.9212E+01  0.5188E+02
    -16.022  0.5841E+01  0.5265E+02
    -15.890  0.1307E+02  0.5437E+02
    -15.758  0.1205E+02  0.5596E+02
    -15.626  0.2025E+01  0.5623E+02
    -15.495  0.4177E+01  0.5678E+02
    -15.363  0.2898E+01  0.5716E+02
    -15.231  0.1013E+02  0.5849E+02
    -15.100  0.2201E+02  0.6139E+02
    -14.968  0.4796E+01  0.6202E+02
    -14.836  0.1131E+02  0.6351E+02
    -14.705  0.1059E+02  0.6491E+02
    -14.573  0.6429E+01  0.6575E+02
    -14.441  0.1538E+02  0.6778E+02
    -14.309  0.5062E+01  0.6844E+02
    -14.178  0.1028E+01  0.6858E+02
    -14.046  0.4065E+01  0.6912E+02
    -13.914  0.9792E+01  0.7040E+02
    -13.783  0.1647E+02  0.7257E+02
    -13.651  0.1840E+02  0.7500E+02
    -13.519  0.1679E+01  0.7522E+02
    -13.388  0.2555E+01  0.7556E+02
    -13.256  0.4586E+00  0.7562E+02
    -13.124  0.1111E+02  0.7708E+02
    -12.992  0.1391E+02  0.7891E+02
    -12.861  0.2048E+02  0.8161E+02
    -12.729  0.1296E+01  0.8178E+02
    -12.597  0.4419E+01  0.8236E+02
    -12.466  0.1787E+02  0.8471E+02
    -12.334  0.1091E+02  0.8615E+02
    -12.202  0.3656E+01  0.8663E+02
    -12.071  0.3216E+01  0.8705E+02
    -11.939  0.1215E+02  0.8865E+02
    -11.807  0.3572E+01  0.8913E+02
    -11.676  0.1562E+02  0.9118E+02
    -11.544  0.1802E+02  0.9355E+02
    -11.412  0.1358E+02  0.9534E+02
    -11.280  0.8234E+01  0.9643E+02
    -11.149  0.5795E+01  0.9719E+02
    -11.017  0.7858E+01  0.9822E+02
    -10.885  0.1275E+02  0.9990E+02
    -10.754  0.1715E+02  0.1022E+03
    -10.622  0.1958E+01  0.1024E+03
    -10.490  0.2059E+02  0.1051E+03
    -10.359  0.3875E+01  0.1056E+03
    -10.227  0.2409E+02  0.1088E+03
    -10.095  0.2573E+02  0.1122E+03
     -9.963  0.1859E+02  0.1147E+03
     -9.832  0.1442E+02  0.1166E+03
     -9.700  0.1767E+02  0.1189E+03
     -9.568  0.2754E+02  0.1225E+03
     -9.437  0.2088E+02  0.1253E+03
     -9.305  0.2719E+02  0.1288E+03
     -9.173  0.2356E+02  0.1319E+03
     -9.042  0.2874E+02  0.1357E+03
     -8.910  0.1992E+02  0.1383E+03
     -8.778  0.1787E+02  0.1407E+03
     -8.647  0.2328E+02  0.1438E+03
     -8.515  0.1754E+02  0.1461E+03
     -8.383  0.1628E+02  0.1482E+03
     -8.251  0.1549E+02  0.1503E+03
     -8.120  0.1578E+02  0.1523E+03
     -7.988  0.2851E+02  0.1561E+03
     -7.856  0.1629E+02  0.1582E+03
     -7.725  0.1661E+02  0.1604E+03
     -7.593  0.7962E+01  0.1615E+03
     -7.461  0.2313E+01  0.1618E+03
     -7.330  0.1738E+02  0.1641E+03
     -7.198  0.3206E+02  0.1683E+03
     -7.066  0.1617E+02  0.1704E+03
     -6.934  0.4235E+01  0.1710E+03
     -6.803  0.1944E+02  0.1735E+03
     -6.671  0.1252E+02  0.1752E+03
     -6.539  0.1607E+02  0.1773E+03
     -6.408  0.7165E+01  0.1782E+03
     -6.276  0.1255E+02  0.1799E+03
     -6.144  0.1521E+02  0.1819E+03
     -6.013  0.1385E+02  0.1837E+03
     -5.881  0.2000E+02  0.1864E+03
     -5.749  0.7956E+01  0.1874E+03
     -5.618  0.1379E+02  0.1892E+03
     -5.486  0.3210E+01  0.1896E+03
     -5.354  0.7862E+01  0.1907E+03
     -5.222  0.8689E+01  0.1918E+03
     -5.091  0.1176E+02  0.1934E+03
     -4.959  0.1804E+02  0.1958E+03
     -4.827  0.1547E+02  0.1978E+03
     -4.696  0.3198E+01  0.1982E+03
     -4.564  0.9427E-01  0.1982E+03
     -4.432  0.3161E-04  0.1982E+03
     -4.301  0.2805E+01  0.1986E+03
     -4.169  0.1776E+02  0.2009E+03
     -4.037  0.4742E+01  0.2016E+03
     -3.905  0.7197E-03  0.2016E+03
     -3.774  0.4451E+00  0.2016E+03
     -3.642  0.2914E+01  0.2020E+03
     -3.510  0.2654E+00  0.2020E+03
     -3.379  0.4311E+01  0.2026E+03
     -3.247  0.1229E+02  0.2042E+03
     -3.115  0.1076E+02  0.2056E+03
     -2.984  0.2803E+01  0.2060E+03
     -2.852  0.2442E+01  0.2063E+03
     -2.720  0.9228E+01  0.2075E+03
     -2.589  0.9440E-01  0.2076E+03
     -2.457  0.7469E-01  0.2076E+03
     -2.325  0.3160E+01  0.2080E+03
     -2.193  0.2831E+01  0.2084E+03
     -2.062  0.6833E+00  0.2084E+03
     -1.930  0.8726E-05  0.2084E+03
     -1.798  0.1600E-07  0.2084E+03
     -1.667  0.1368E+00  0.2085E+03
     -1.535  0.9390E+01  0.2097E+03
     -1.403  0.1266E+02  0.2114E+03
     -1.272  0.3123E+01  0.2118E+03
     -1.140  0.1306E-03  0.2118E+03
     -1.008  0.1127E+01  0.2119E+03
     -0.876  0.1063E+02  0.2133E+03
     -0.745  0.2333E+02  0.2164E+03
     -0.613  0.1833E+02  0.2188E+03
     -0.481  0.5398E+01  0.2195E+03
     -0.350  0.2848E+00  0.2196E+03
     -0.218  0.4366E+01  0.2201E+03
     -0.086  0.1137E+02  0.2216E+03
      0.045  0.1048E+02  0.2230E+03
      0.177  0.8755E+00  0.2231E+03
      0.309  0.1626E+02  0.2253E+03
      0.440  0.7483E+01  0.2263E+03
      0.572  0.3300E+01  0.2267E+03
      0.704  0.1077E+02  0.2281E+03
      0.836  0.1708E+02  0.2304E+03
      0.967  0.6154E+01  0.2312E+03
      1.099  0.1108E+02  0.2326E+03
      1.231  0.1497E+02  0.2346E+03
      1.362  0.8142E+01  0.2357E+03
      1.494  0.1502E+02  0.2377E+03
      1.626  0.2299E+02  0.2407E+03
      1.757  0.1550E+02  0.2427E+03
      1.889  0.2750E+02  0.2463E+03
      2.021  0.8634E+01  0.2475E+03
      2.153  0.1570E+02  0.2495E+03
      2.284  0.2608E+02  0.2530E+03
      2.416  0.2899E+02  0.2568E+03
      2.548  0.7507E+01  0.2578E+03
      2.679  0.6211E+01  0.2586E+03
      2.811  0.9000E+01  0.2598E+03
      2.943  0.5217E+01  0.2605E+03
      3.074  0.9170E+01  0.2617E+03
      3.206  0.2775E+01  0.2621E+03
      3.338  0.4634E+01  0.2627E+03
      3.470  0.3120E-01  0.2627E+03
      3.601  0.3074E+01  0.2631E+03
      3.733  0.3674E+01  0.2636E+03
      3.865  0.1695E-02  0.2636E+03
      3.996  0.6387E-06  0.2636E+03
      4.128  0.2963E+00  0.2636E+03
      4.260  0.3049E+01  0.2640E+03
      4.391  0.2998E-01  0.2640E+03
      4.523  0.1843E-08  0.2640E+03
      4.655  0.0000E+00  0.2640E+03
      4.786  0.0000E+00  0.2640E+03
      4.918  0.0000E+00  0.2640E+03
      5.050  0.0000E+00  0.2640E+03
      5.182  0.0000E+00  0.2640E+03
      5.313  0.0000E+00  0.2640E+03
      5.445  0.0000E+00  0.2640E+03
      5.577  0.0000E+00  0.2640E+03
      5.708  0.0000E+00  0.2640E+03
      5.840  0.0000E+00  0.2640E+03
      5.972  0.0000E+00  0.2640E+03
