 running on   48 total cores
 distrk:  each k-point on   48 cores,    1 groups
 distr:  one band on    8 cores,    6 groups
 using from now: INCAR     
 vasp.5.4.4.18Apr17-6-g9f103f2a35 (build Aug 13 2022 23:40:43) complex          
  
 POSCAR found type information on POSCAR  C  O 
 POSCAR found :  2 types and      51 ions
 scaLAPACK will be used

 ----------------------------------------------------------------------------- 
|                                                                             |
|  ADVICE TO THIS USER RUNNING 'VASP/VAMP'   (HEAR YOUR MASTER'S VOICE ...):  |
|                                                                             |
|      You have a (more or less) 'large supercell' and for larger cells       |
|      it might be more efficient to use real space projection opertators     |
|      So try LREAL= Auto  in the INCAR   file.                               |
|      Mind:          For very  accurate calculation you might also keep the  |
|      reciprocal projection scheme          (i.e. LREAL=.FALSE.)             |
|                                                                             |
 ----------------------------------------------------------------------------- 

 LDA part: xc-table for Pade appr. of Perdew
 POSCAR found type information on POSCAR  C  O 
 POSCAR found :  2 types and      51 ions
 found WAVECAR, reading the header
  number of k-points has changed, file:     3 present:     5
  trying to continue reading WAVECAR, but it might fail
 POSCAR, INCAR and KPOINTS ok, starting setup
 FFT: planning ...
 reading WAVECAR
 the WAVECAR file was read successfully
 charge-density read from file: 1.00000000000000                        
 entering main loop
       N       E                     dE             d eps       ncg     rms          rms(c)
DAV:   1    -0.453296480358E+03   -0.45330E+03   -0.28416E+02  1356   0.217E+01    0.501E-01
RMM:   2    -0.454284344032E+03   -0.98786E+00   -0.99035E+00  1425   0.566E+00    0.211E-01
RMM:   3    -0.454336561804E+03   -0.52218E-01   -0.58533E-01  1580   0.110E+00    0.155E-01
RMM:   4    -0.454340424463E+03   -0.38627E-02   -0.40557E-02  1577   0.311E-01    0.153E-01
RMM:   5    -0.454340528736E+03   -0.10427E-03   -0.31938E-03  1511   0.909E-02    0.611E-02
RMM:   6    -0.454340555139E+03   -0.26403E-04   -0.49790E-04  1532   0.462E-02    0.158E-02
RMM:   7    -0.454340562119E+03   -0.69799E-05   -0.22573E-05  1038   0.112E-02
   1 F= -.45434056E+03 E0= -.45434051E+03  d E =-.114164E-03
