  51  51   0   0
  0.5138078E+02  0.1230000E-08  0.1230000E-08  0.2000000E-08  0.5000000E-15
  1.000000000000000E-004
  CAR 
                                         
      5.96699276    -33.53556553  301     -3.01679032      1.00000000
    -33.536  0.0000E+00  0.0000E+00
    -33.404  0.0000E+00  0.0000E+00
    -33.272  0.0000E+00  0.0000E+00
    -33.141  0.0000E+00  0.0000E+00
    -33.009  0.0000E+00  0.0000E+00
    -32.877  0.0000E+00  0.0000E+00
    -32.746  0.0000E+00  0.0000E+00
    -32.614  0.0000E+00  0.0000E+00
    -32.482  0.0000E+00  0.0000E+00
    -32.350  0.0000E+00  0.0000E+00
    -32.219  0.0000E+00  0.0000E+00
    -32.087  0.0000E+00  0.0000E+00
    -31.955  0.8276E-08  0.1090E-08
    -31.824  0.1346E+00  0.1772E-01
    -31.692  0.1372E+02  0.1824E+01
    -31.560  0.1337E+01  0.2000E+01
    -31.429  0.2907E-05  0.2000E+01
    -31.297  0.0000E+00  0.2000E+01
    -31.165  0.0000E+00  0.2000E+01
    -31.034  0.0000E+00  0.2000E+01
    -30.902  0.0000E+00  0.2000E+01
    -30.770  0.0000E+00  0.2000E+01
    -30.639  0.0000E+00  0.2000E+01
    -30.507  0.0000E+00  0.2000E+01
    -30.375  0.0000E+00  0.2000E+01
    -30.244  0.0000E+00  0.2000E+01
    -30.112  0.0000E+00  0.2000E+01
    -29.980  0.0000E+00  0.2000E+01
    -29.849  0.0000E+00  0.2000E+01
    -29.717  0.0000E+00  0.2000E+01
    -29.585  0.0000E+00  0.2000E+01
    -29.454  0.0000E+00  0.2000E+01
    -29.322  0.0000E+00  0.2000E+01
    -29.190  0.0000E+00  0.2000E+01
    -29.059  0.0000E+00  0.2000E+01
    -28.927  0.0000E+00  0.2000E+01
    -28.795  0.0000E+00  0.2000E+01
    -28.664  0.0000E+00  0.2000E+01
    -28.532  0.0000E+00  0.2000E+01
    -28.400  0.0000E+00  0.2000E+01
    -28.269  0.0000E+00  0.2000E+01
    -28.137  0.0000E+00  0.2000E+01
    -28.005  0.0000E+00  0.2000E+01
    -27.874  0.0000E+00  0.2000E+01
    -27.742  0.0000E+00  0.2000E+01
    -27.610  0.0000E+00  0.2000E+01
    -27.479  0.0000E+00  0.2000E+01
    -27.347  0.0000E+00  0.2000E+01
    -27.215  0.0000E+00  0.2000E+01
    -27.083  0.0000E+00  0.2000E+01
    -26.952  0.0000E+00  0.2000E+01
    -26.820  0.0000E+00  0.2000E+01
    -26.688  0.0000E+00  0.2000E+01
    -26.557  0.0000E+00  0.2000E+01
    -26.425  0.0000E+00  0.2000E+01
    -26.293  0.0000E+00  0.2000E+01
    -26.162  0.0000E+00  0.2000E+01
    -26.030  0.0000E+00  0.2000E+01
    -25.898  0.0000E+00  0.2000E+01
    -25.767  0.0000E+00  0.2000E+01
    -25.635  0.0000E+00  0.2000E+01
    -25.503  0.0000E+00  0.2000E+01
    -25.372  0.0000E+00  0.2000E+01
    -25.240  0.0000E+00  0.2000E+01
    -25.108  0.0000E+00  0.2000E+01
    -24.977  0.0000E+00  0.2000E+01
    -24.845  0.0000E+00  0.2000E+01
    -24.713  0.0000E+00  0.2000E+01
    -24.582  0.0000E+00  0.2000E+01
    -24.450  0.0000E+00  0.2000E+01
    -24.318  0.0000E+00  0.2000E+01
    -24.187  0.0000E+00  0.2000E+01
    -24.055  0.0000E+00  0.2000E+01
    -23.923  0.0000E+00  0.2000E+01
    -23.792  0.0000E+00  0.2000E+01
    -23.660  0.0000E+00  0.2000E+01
    -23.528  0.0000E+00  0.2000E+01
    -23.397  0.0000E+00  0.2000E+01
    -23.265  0.0000E+00  0.2000E+01
    -23.133  0.0000E+00  0.2000E+01
    -23.002  0.0000E+00  0.2000E+01
    -22.870  0.0000E+00  0.2000E+01
    -22.738  0.0000E+00  0.2000E+01
    -22.607  0.0000E+00  0.2000E+01
    -22.475  0.6788E-08  0.2000E+01
    -22.343  0.3469E-01  0.2005E+01
    -22.211  0.4221E+01  0.2560E+01
    -22.080  0.9333E+01  0.3789E+01
    -21.948  0.4942E+01  0.4440E+01
    -21.816  0.1062E+02  0.5838E+01
    -21.685  0.5524E+01  0.6565E+01
    -21.553  0.7792E+01  0.7591E+01
    -21.421  0.1246E+02  0.9232E+01
    -21.290  0.5825E+01  0.9999E+01
    -21.158  0.3514E+01  0.1046E+02
    -21.026  0.9361E+01  0.1169E+02
    -20.895  0.1044E+02  0.1307E+02
    -20.763  0.1029E+02  0.1442E+02
    -20.631  0.8551E+01  0.1555E+02
    -20.500  0.1885E+00  0.1558E+02
    -20.368  0.1307E+02  0.1730E+02
    -20.236  0.4014E+01  0.1782E+02
    -20.105  0.1838E+02  0.2025E+02
    -19.973  0.1524E+01  0.2045E+02
    -19.841  0.3418E+01  0.2090E+02
    -19.710  0.1375E+02  0.2271E+02
    -19.578  0.8639E+01  0.2384E+02
    -19.446  0.6235E+01  0.2467E+02
    -19.315  0.6397E+01  0.2551E+02
    -19.183  0.1436E+02  0.2740E+02
    -19.051  0.7365E+01  0.2837E+02
    -18.920  0.5081E+01  0.2904E+02
    -18.788  0.5183E+01  0.2972E+02
    -18.656  0.4803E+01  0.3035E+02
    -18.525  0.1424E+02  0.3223E+02
    -18.393  0.1127E+02  0.3371E+02
    -18.261  0.8862E+01  0.3488E+02
    -18.130  0.4546E+01  0.3548E+02
    -17.998  0.1557E+02  0.3753E+02
    -17.866  0.4805E+01  0.3816E+02
    -17.735  0.3758E+01  0.3865E+02
    -17.603  0.5300E+01  0.3935E+02
    -17.471  0.1614E+02  0.4148E+02
    -17.340  0.4075E+01  0.4201E+02
    -17.208  0.2150E+02  0.4484E+02
    -17.076  0.6855E+01  0.4575E+02
    -16.944  0.3600E+01  0.4622E+02
    -16.813  0.8758E+01  0.4737E+02
    -16.681  0.4005E+01  0.4790E+02
    -16.549  0.8972E+01  0.4908E+02
    -16.418  0.8936E+01  0.5026E+02
    -16.286  0.2879E+01  0.5064E+02
    -16.154  0.9423E+01  0.5188E+02
    -16.023  0.5723E+01  0.5263E+02
    -15.891  0.1309E+02  0.5436E+02
    -15.759  0.1214E+02  0.5595E+02
    -15.628  0.2070E+01  0.5623E+02
    -15.496  0.4139E+01  0.5677E+02
    -15.364  0.2881E+01  0.5715E+02
    -15.233  0.1012E+02  0.5848E+02
    -15.101  0.2176E+02  0.6135E+02
    -14.969  0.5144E+01  0.6203E+02
    -14.838  0.1129E+02  0.6351E+02
    -14.706  0.1053E+02  0.6490E+02
    -14.574  0.6409E+01  0.6574E+02
    -14.443  0.1520E+02  0.6775E+02
    -14.311  0.5310E+01  0.6844E+02
    -14.179  0.9654E+00  0.6857E+02
    -14.048  0.4127E+01  0.6912E+02
    -13.916  0.9601E+01  0.7038E+02
    -13.784  0.1628E+02  0.7252E+02
    -13.653  0.1871E+02  0.7499E+02
    -13.521  0.1813E+01  0.7522E+02
    -13.389  0.2510E+01  0.7556E+02
    -13.258  0.4229E+00  0.7561E+02
    -13.126  0.1096E+02  0.7705E+02
    -12.994  0.1395E+02  0.7889E+02
    -12.863  0.2064E+02  0.8161E+02
    -12.731  0.1287E+01  0.8178E+02
    -12.599  0.4256E+01  0.8234E+02
    -12.468  0.1801E+02  0.8471E+02
    -12.336  0.1087E+02  0.8614E+02
    -12.204  0.3733E+01  0.8663E+02
    -12.073  0.2759E+01  0.8700E+02
    -11.941  0.1257E+02  0.8865E+02
    -11.809  0.3266E+01  0.8908E+02
    -11.677  0.1579E+02  0.9116E+02
    -11.546  0.1811E+02  0.9355E+02
    -11.414  0.1352E+02  0.9533E+02
    -11.282  0.8374E+01  0.9643E+02
    -11.151  0.5543E+01  0.9716E+02
    -11.019  0.8094E+01  0.9822E+02
    -10.887  0.1208E+02  0.9981E+02
    -10.756  0.1778E+02  0.1022E+03
    -10.624  0.1984E+01  0.1024E+03
    -10.492  0.2044E+02  0.1051E+03
    -10.361  0.3980E+01  0.1056E+03
    -10.229  0.2381E+02  0.1088E+03
    -10.097  0.2582E+02  0.1122E+03
     -9.966  0.1879E+02  0.1146E+03
     -9.834  0.1402E+02  0.1165E+03
     -9.702  0.1784E+02  0.1188E+03
     -9.571  0.2717E+02  0.1224E+03
     -9.439  0.2143E+02  0.1252E+03
     -9.307  0.2687E+02  0.1288E+03
     -9.176  0.2351E+02  0.1319E+03
     -9.044  0.2874E+02  0.1357E+03
     -8.912  0.2021E+02  0.1383E+03
     -8.781  0.1812E+02  0.1407E+03
     -8.649  0.2234E+02  0.1436E+03
     -8.517  0.1810E+02  0.1460E+03
     -8.386  0.1619E+02  0.1482E+03
     -8.254  0.1578E+02  0.1502E+03
     -8.122  0.1540E+02  0.1523E+03
     -7.991  0.2875E+02  0.1561E+03
     -7.859  0.1618E+02  0.1582E+03
     -7.727  0.1703E+02  0.1604E+03
     -7.596  0.7660E+01  0.1614E+03
     -7.464  0.2646E+01  0.1618E+03
     -7.332  0.1638E+02  0.1639E+03
     -7.201  0.3270E+02  0.1682E+03
     -7.069  0.1652E+02  0.1704E+03
     -6.937  0.3801E+01  0.1709E+03
     -6.806  0.1982E+02  0.1735E+03
     -6.674  0.1219E+02  0.1751E+03
     -6.542  0.1643E+02  0.1773E+03
     -6.410  0.7218E+01  0.1782E+03
     -6.279  0.1218E+02  0.1798E+03
     -6.147  0.1546E+02  0.1819E+03
     -6.015  0.1391E+02  0.1837E+03
     -5.884  0.1960E+02  0.1863E+03
     -5.752  0.8110E+01  0.1874E+03
     -5.620  0.1389E+02  0.1892E+03
     -5.489  0.3386E+01  0.1896E+03
     -5.357  0.7576E+01  0.1906E+03
     -5.225  0.9005E+01  0.1918E+03
     -5.094  0.1132E+02  0.1933E+03
     -4.962  0.1767E+02  0.1956E+03
     -4.830  0.1628E+02  0.1978E+03
     -4.699  0.3209E+01  0.1982E+03
     -4.567  0.1186E+00  0.1982E+03
     -4.435  0.2390E-04  0.1982E+03
     -4.304  0.2621E+01  0.1986E+03
     -4.172  0.1712E+02  0.2008E+03
     -4.040  0.5567E+01  0.2016E+03
     -3.909  0.1559E-02  0.2016E+03
     -3.777  0.3825E+00  0.2016E+03
     -3.645  0.2973E+01  0.2020E+03
     -3.514  0.2115E+00  0.2020E+03
     -3.382  0.4148E+01  0.2026E+03
     -3.250  0.1232E+02  0.2042E+03
     -3.119  0.1058E+02  0.2056E+03
     -2.987  0.3176E+01  0.2060E+03
     -2.855  0.2299E+01  0.2063E+03
     -2.724  0.9356E+01  0.2075E+03
     -2.592  0.1217E+00  0.2076E+03
     -2.460  0.5905E-01  0.2076E+03
     -2.329  0.3142E+01  0.2080E+03
     -2.197  0.2807E+01  0.2083E+03
     -2.065  0.7425E+00  0.2084E+03
     -1.934  0.1166E-04  0.2084E+03
     -1.802  0.1583E-07  0.2084E+03
     -1.670  0.1399E+00  0.2085E+03
     -1.538  0.9397E+01  0.2097E+03
     -1.407  0.1197E+02  0.2113E+03
     -1.275  0.3803E+01  0.2118E+03
     -1.143  0.2129E-03  0.2118E+03
     -1.012  0.1039E+01  0.2119E+03
     -0.880  0.1034E+02  0.2133E+03
     -0.748  0.2347E+02  0.2164E+03
     -0.617  0.1838E+02  0.2188E+03
     -0.485  0.5490E+01  0.2195E+03
     -0.353  0.3583E+00  0.2196E+03
     -0.222  0.4235E+01  0.2201E+03
     -0.090  0.1124E+02  0.2216E+03
      0.042  0.1059E+02  0.2230E+03
      0.173  0.1018E+01  0.2231E+03
      0.305  0.1536E+02  0.2251E+03
      0.437  0.8205E+01  0.2262E+03
      0.568  0.3342E+01  0.2267E+03
      0.700  0.1011E+02  0.2280E+03
      0.832  0.1760E+02  0.2303E+03
      0.963  0.6256E+01  0.2311E+03
      1.095  0.1069E+02  0.2325E+03
      1.227  0.1545E+02  0.2346E+03
      1.358  0.7737E+01  0.2356E+03
      1.490  0.1510E+02  0.2376E+03
      1.622  0.2300E+02  0.2406E+03
      1.753  0.1533E+02  0.2426E+03
      1.885  0.2775E+02  0.2463E+03
      2.017  0.8462E+01  0.2474E+03
      2.148  0.1574E+02  0.2495E+03
      2.280  0.2590E+02  0.2529E+03
      2.412  0.2908E+02  0.2567E+03
      2.543  0.8160E+01  0.2578E+03
      2.675  0.6275E+01  0.2586E+03
      2.807  0.8565E+01  0.2597E+03
      2.938  0.5531E+01  0.2605E+03
      3.070  0.9113E+01  0.2617E+03
      3.202  0.2669E+01  0.2620E+03
      3.333  0.4828E+01  0.2627E+03
      3.465  0.4214E-01  0.2627E+03
      3.597  0.2867E+01  0.2630E+03
      3.729  0.3881E+01  0.2636E+03
      3.860  0.1860E-02  0.2636E+03
      3.992  0.6416E-06  0.2636E+03
      4.124  0.2964E+00  0.2636E+03
      4.255  0.3049E+01  0.2640E+03
      4.387  0.3002E-01  0.2640E+03
      4.519  0.1854E-08  0.2640E+03
      4.650  0.0000E+00  0.2640E+03
      4.782  0.0000E+00  0.2640E+03
      4.914  0.0000E+00  0.2640E+03
      5.045  0.0000E+00  0.2640E+03
      5.177  0.0000E+00  0.2640E+03
      5.309  0.0000E+00  0.2640E+03
      5.440  0.0000E+00  0.2640E+03
      5.572  0.0000E+00  0.2640E+03
      5.704  0.0000E+00  0.2640E+03
      5.835  0.0000E+00  0.2640E+03
      5.967  0.0000E+00  0.2640E+03
