  51  51   0   0
  0.5138078E+02  0.1230000E-08  0.1230000E-08  0.2000000E-08  0.5000000E-15
  1.000000000000000E-004
  CAR 
                                         
      5.96939196    -33.53531764  301     -3.01702010      1.00000000
    -33.535  0.0000E+00  0.0000E+00
    -33.404  0.0000E+00  0.0000E+00
    -33.272  0.0000E+00  0.0000E+00
    -33.140  0.0000E+00  0.0000E+00
    -33.009  0.0000E+00  0.0000E+00
    -32.877  0.0000E+00  0.0000E+00
    -32.745  0.0000E+00  0.0000E+00
    -32.614  0.0000E+00  0.0000E+00
    -32.482  0.0000E+00  0.0000E+00
    -32.350  0.0000E+00  0.0000E+00
    -32.218  0.0000E+00  0.0000E+00
    -32.087  0.0000E+00  0.0000E+00
    -31.955  0.8258E-08  0.1087E-08
    -31.823  0.1345E+00  0.1772E-01
    -31.692  0.1372E+02  0.1824E+01
    -31.560  0.1337E+01  0.2000E+01
    -31.428  0.2903E-05  0.2000E+01
    -31.297  0.0000E+00  0.2000E+01
    -31.165  0.0000E+00  0.2000E+01
    -31.033  0.0000E+00  0.2000E+01
    -30.902  0.0000E+00  0.2000E+01
    -30.770  0.0000E+00  0.2000E+01
    -30.638  0.0000E+00  0.2000E+01
    -30.507  0.0000E+00  0.2000E+01
    -30.375  0.0000E+00  0.2000E+01
    -30.243  0.0000E+00  0.2000E+01
    -30.112  0.0000E+00  0.2000E+01
    -29.980  0.0000E+00  0.2000E+01
    -29.848  0.0000E+00  0.2000E+01
    -29.717  0.0000E+00  0.2000E+01
    -29.585  0.0000E+00  0.2000E+01
    -29.453  0.0000E+00  0.2000E+01
    -29.321  0.0000E+00  0.2000E+01
    -29.190  0.0000E+00  0.2000E+01
    -29.058  0.0000E+00  0.2000E+01
    -28.926  0.0000E+00  0.2000E+01
    -28.795  0.0000E+00  0.2000E+01
    -28.663  0.0000E+00  0.2000E+01
    -28.531  0.0000E+00  0.2000E+01
    -28.400  0.0000E+00  0.2000E+01
    -28.268  0.0000E+00  0.2000E+01
    -28.136  0.0000E+00  0.2000E+01
    -28.005  0.0000E+00  0.2000E+01
    -27.873  0.0000E+00  0.2000E+01
    -27.741  0.0000E+00  0.2000E+01
    -27.610  0.0000E+00  0.2000E+01
    -27.478  0.0000E+00  0.2000E+01
    -27.346  0.0000E+00  0.2000E+01
    -27.215  0.0000E+00  0.2000E+01
    -27.083  0.0000E+00  0.2000E+01
    -26.951  0.0000E+00  0.2000E+01
    -26.820  0.0000E+00  0.2000E+01
    -26.688  0.0000E+00  0.2000E+01
    -26.556  0.0000E+00  0.2000E+01
    -26.424  0.0000E+00  0.2000E+01
    -26.293  0.0000E+00  0.2000E+01
    -26.161  0.0000E+00  0.2000E+01
    -26.029  0.0000E+00  0.2000E+01
    -25.898  0.0000E+00  0.2000E+01
    -25.766  0.0000E+00  0.2000E+01
    -25.634  0.0000E+00  0.2000E+01
    -25.503  0.0000E+00  0.2000E+01
    -25.371  0.0000E+00  0.2000E+01
    -25.239  0.0000E+00  0.2000E+01
    -25.108  0.0000E+00  0.2000E+01
    -24.976  0.0000E+00  0.2000E+01
    -24.844  0.0000E+00  0.2000E+01
    -24.713  0.0000E+00  0.2000E+01
    -24.581  0.0000E+00  0.2000E+01
    -24.449  0.0000E+00  0.2000E+01
    -24.318  0.0000E+00  0.2000E+01
    -24.186  0.0000E+00  0.2000E+01
    -24.054  0.0000E+00  0.2000E+01
    -23.923  0.0000E+00  0.2000E+01
    -23.791  0.0000E+00  0.2000E+01
    -23.659  0.0000E+00  0.2000E+01
    -23.527  0.0000E+00  0.2000E+01
    -23.396  0.0000E+00  0.2000E+01
    -23.264  0.0000E+00  0.2000E+01
    -23.132  0.0000E+00  0.2000E+01
    -23.001  0.0000E+00  0.2000E+01
    -22.869  0.0000E+00  0.2000E+01
    -22.737  0.0000E+00  0.2000E+01
    -22.606  0.0000E+00  0.2000E+01
    -22.474  0.7434E-08  0.2000E+01
    -22.342  0.3601E-01  0.2005E+01
    -22.211  0.4262E+01  0.2566E+01
    -22.079  0.9270E+01  0.3787E+01
    -21.947  0.4995E+01  0.4444E+01
    -21.816  0.1061E+02  0.5841E+01
    -21.684  0.5435E+01  0.6557E+01
    -21.552  0.7869E+01  0.7593E+01
    -21.421  0.1269E+02  0.9264E+01
    -21.289  0.5587E+01  0.9999E+01
    -21.157  0.3731E+01  0.1049E+02
    -21.025  0.8973E+01  0.1167E+02
    -20.894  0.1089E+02  0.1311E+02
    -20.762  0.1012E+02  0.1444E+02
    -20.630  0.8446E+01  0.1555E+02
    -20.499  0.1785E+00  0.1557E+02
    -20.367  0.1304E+02  0.1729E+02
    -20.235  0.4045E+01  0.1783E+02
    -20.104  0.1855E+02  0.2027E+02
    -19.972  0.1357E+01  0.2045E+02
    -19.840  0.3523E+01  0.2091E+02
    -19.709  0.1373E+02  0.2272E+02
    -19.577  0.8520E+01  0.2384E+02
    -19.445  0.6265E+01  0.2466E+02
    -19.314  0.6532E+01  0.2553E+02
    -19.182  0.1430E+02  0.2741E+02
    -19.050  0.7378E+01  0.2838E+02
    -18.919  0.5024E+01  0.2904E+02
    -18.787  0.5145E+01  0.2972E+02
    -18.655  0.5106E+01  0.3039E+02
    -18.524  0.1398E+02  0.3223E+02
    -18.392  0.1132E+02  0.3372E+02
    -18.260  0.8785E+01  0.3488E+02
    -18.128  0.4831E+01  0.3551E+02
    -17.997  0.1524E+02  0.3752E+02
    -17.865  0.4777E+01  0.3815E+02
    -17.733  0.3818E+01  0.3865E+02
    -17.602  0.5839E+01  0.3942E+02
    -17.470  0.1556E+02  0.4147E+02
    -17.338  0.4246E+01  0.4203E+02
    -17.207  0.2144E+02  0.4485E+02
    -17.075  0.6858E+01  0.4576E+02
    -16.943  0.3533E+01  0.4622E+02
    -16.812  0.8685E+01  0.4736E+02
    -16.680  0.4010E+01  0.4789E+02
    -16.548  0.9064E+01  0.4909E+02
    -16.417  0.8941E+01  0.5026E+02
    -16.285  0.3040E+01  0.5066E+02
    -16.153  0.9348E+01  0.5189E+02
    -16.022  0.5877E+01  0.5267E+02
    -15.890  0.1297E+02  0.5438E+02
    -15.758  0.1198E+02  0.5596E+02
    -15.627  0.2003E+01  0.5622E+02
    -15.495  0.4147E+01  0.5676E+02
    -15.363  0.2972E+01  0.5716E+02
    -15.231  0.1014E+02  0.5849E+02
    -15.100  0.2198E+02  0.6139E+02
    -14.968  0.4861E+01  0.6203E+02
    -14.836  0.1134E+02  0.6352E+02
    -14.705  0.1055E+02  0.6491E+02
    -14.573  0.6410E+01  0.6575E+02
    -14.441  0.1525E+02  0.6776E+02
    -14.310  0.5198E+01  0.6844E+02
    -14.178  0.1014E+01  0.6858E+02
    -14.046  0.4090E+01  0.6912E+02
    -13.915  0.9856E+01  0.7041E+02
    -13.783  0.1651E+02  0.7259E+02
    -13.651  0.1835E+02  0.7500E+02
    -13.520  0.1681E+01  0.7523E+02
    -13.388  0.2506E+01  0.7556E+02
    -13.256  0.4674E+00  0.7562E+02
    -13.125  0.1094E+02  0.7706E+02
    -12.993  0.1384E+02  0.7888E+02
    -12.861  0.2070E+02  0.8160E+02
    -12.730  0.1313E+01  0.8178E+02
    -12.598  0.4590E+01  0.8238E+02
    -12.466  0.1774E+02  0.8472E+02
    -12.334  0.1089E+02  0.8615E+02
    -12.203  0.3644E+01  0.8663E+02
    -12.071  0.2990E+01  0.8703E+02
    -11.939  0.1231E+02  0.8865E+02
    -11.808  0.3420E+01  0.8910E+02
    -11.676  0.1591E+02  0.9119E+02
    -11.544  0.1811E+02  0.9358E+02
    -11.413  0.1331E+02  0.9533E+02
    -11.281  0.8547E+01  0.9646E+02
    -11.149  0.5631E+01  0.9720E+02
    -11.018  0.7808E+01  0.9822E+02
    -10.886  0.1260E+02  0.9988E+02
    -10.754  0.1729E+02  0.1022E+03
    -10.623  0.1936E+01  0.1024E+03
    -10.491  0.2036E+02  0.1051E+03
    -10.359  0.4132E+01  0.1056E+03
    -10.228  0.2420E+02  0.1088E+03
    -10.096  0.2568E+02  0.1122E+03
     -9.964  0.1856E+02  0.1147E+03
     -9.832  0.1432E+02  0.1165E+03
     -9.701  0.1766E+02  0.1189E+03
     -9.569  0.2713E+02  0.1224E+03
     -9.437  0.2125E+02  0.1252E+03
     -9.306  0.2735E+02  0.1288E+03
     -9.174  0.2342E+02  0.1319E+03
     -9.042  0.2855E+02  0.1357E+03
     -8.911  0.2012E+02  0.1383E+03
     -8.779  0.1801E+02  0.1407E+03
     -8.647  0.2314E+02  0.1437E+03
     -8.516  0.1751E+02  0.1461E+03
     -8.384  0.1600E+02  0.1482E+03
     -8.252  0.1583E+02  0.1502E+03
     -8.121  0.1589E+02  0.1523E+03
     -7.989  0.2824E+02  0.1561E+03
     -7.857  0.1654E+02  0.1582E+03
     -7.726  0.1666E+02  0.1604E+03
     -7.594  0.7868E+01  0.1615E+03
     -7.462  0.2415E+01  0.1618E+03
     -7.331  0.1691E+02  0.1640E+03
     -7.199  0.3250E+02  0.1683E+03
     -7.067  0.1619E+02  0.1704E+03
     -6.935  0.3960E+01  0.1709E+03
     -6.804  0.1969E+02  0.1735E+03
     -6.672  0.1235E+02  0.1752E+03
     -6.540  0.1633E+02  0.1773E+03
     -6.409  0.7212E+01  0.1783E+03
     -6.277  0.1232E+02  0.1799E+03
     -6.145  0.1542E+02  0.1819E+03
     -6.014  0.1376E+02  0.1837E+03
     -5.882  0.1993E+02  0.1863E+03
     -5.750  0.8019E+01  0.1874E+03
     -5.619  0.1355E+02  0.1892E+03
     -5.487  0.3454E+01  0.1896E+03
     -5.355  0.7792E+01  0.1907E+03
     -5.224  0.8764E+01  0.1918E+03
     -5.092  0.1166E+02  0.1934E+03
     -4.960  0.1772E+02  0.1957E+03
     -4.829  0.1590E+02  0.1978E+03
     -4.697  0.3207E+01  0.1982E+03
     -4.565  0.9845E-01  0.1982E+03
     -4.434  0.2761E-04  0.1982E+03
     -4.302  0.2721E+01  0.1986E+03
     -4.170  0.1716E+02  0.2008E+03
     -4.038  0.5432E+01  0.2016E+03
     -3.907  0.1372E-02  0.2016E+03
     -3.775  0.4118E+00  0.2016E+03
     -3.643  0.2946E+01  0.2020E+03
     -3.512  0.2299E+00  0.2020E+03
     -3.380  0.4247E+01  0.2026E+03
     -3.248  0.1233E+02  0.2042E+03
     -3.117  0.1068E+02  0.2056E+03
     -2.985  0.2950E+01  0.2060E+03
     -2.853  0.2381E+01  0.2063E+03
     -2.722  0.9284E+01  0.2075E+03
     -2.590  0.1050E+00  0.2076E+03
     -2.458  0.6631E-01  0.2076E+03
     -2.327  0.3153E+01  0.2080E+03
     -2.195  0.2831E+01  0.2084E+03
     -2.063  0.6999E+00  0.2084E+03
     -1.932  0.9490E-05  0.2084E+03
     -1.800  0.2182E-07  0.2084E+03
     -1.668  0.1598E+00  0.2085E+03
     -1.537  0.9449E+01  0.2097E+03
     -1.405  0.1206E+02  0.2113E+03
     -1.273  0.3642E+01  0.2118E+03
     -1.141  0.1961E-03  0.2118E+03
     -1.010  0.1092E+01  0.2119E+03
     -0.878  0.1087E+02  0.2134E+03
     -0.746  0.2301E+02  0.2164E+03
     -0.615  0.1830E+02  0.2188E+03
     -0.483  0.5486E+01  0.2195E+03
     -0.351  0.3283E+00  0.2196E+03
     -0.220  0.4308E+01  0.2201E+03
     -0.088  0.1137E+02  0.2216E+03
      0.044  0.1041E+02  0.2230E+03
      0.175  0.1001E+01  0.2231E+03
      0.307  0.1565E+02  0.2252E+03
      0.439  0.7928E+01  0.2262E+03
      0.570  0.3397E+01  0.2267E+03
      0.702  0.1042E+02  0.2281E+03
      0.834  0.1736E+02  0.2303E+03
      0.965  0.6269E+01  0.2312E+03
      1.097  0.1083E+02  0.2326E+03
      1.229  0.1523E+02  0.2346E+03
      1.361  0.7874E+01  0.2356E+03
      1.492  0.1511E+02  0.2376E+03
      1.624  0.2312E+02  0.2407E+03
      1.756  0.1535E+02  0.2427E+03
      1.887  0.2755E+02  0.2463E+03
      2.019  0.8415E+01  0.2474E+03
      2.151  0.1593E+02  0.2495E+03
      2.282  0.2594E+02  0.2529E+03
      2.414  0.2900E+02  0.2568E+03
      2.546  0.7861E+01  0.2578E+03
      2.677  0.6266E+01  0.2586E+03
      2.809  0.8806E+01  0.2598E+03
      2.941  0.5328E+01  0.2605E+03
      3.072  0.9150E+01  0.2617E+03
      3.204  0.2708E+01  0.2620E+03
      3.336  0.4732E+01  0.2627E+03
      3.467  0.3709E-01  0.2627E+03
      3.599  0.2941E+01  0.2631E+03
      3.731  0.3807E+01  0.2636E+03
      3.862  0.1975E-02  0.2636E+03
      3.994  0.6406E-06  0.2636E+03
      4.126  0.2964E+00  0.2636E+03
      4.258  0.3049E+01  0.2640E+03
      4.389  0.3001E-01  0.2640E+03
      4.521  0.1850E-08  0.2640E+03
      4.653  0.0000E+00  0.2640E+03
      4.784  0.0000E+00  0.2640E+03
      4.916  0.0000E+00  0.2640E+03
      5.048  0.0000E+00  0.2640E+03
      5.179  0.0000E+00  0.2640E+03
      5.311  0.0000E+00  0.2640E+03
      5.443  0.0000E+00  0.2640E+03
      5.574  0.0000E+00  0.2640E+03
      5.706  0.0000E+00  0.2640E+03
      5.838  0.0000E+00  0.2640E+03
      5.969  0.0000E+00  0.2640E+03
