                                                                                     
                             WELCOME TO ABACUS v3.0                                  
                                                                                     
               'Atomic-orbital Based Ab-initio Computation at UStc'                  
                                                                                     
                     Website: http://abacus.ustc.edu.cn/                             
                                                                                     
    Version: Parallel, in development
    Processor Number is 16
    Start Time is Thu Nov 14 20:46:50 2024
                                                                                     
 ------------------------------------------------------------------------------------

 READING GENERAL INFORMATION
                           global_out_dir = OUT.ABACUS/
                           global_in_card = INPUT
                               pseudo_dir = 
                              orbital_dir = 
                                    DRANK = 1
                                    DSIZE = 16
                                   DCOLOR = 1
                                    GRANK = 1
                                    GSIZE = 1
 The esolver type has been set to : ksdft_lcao




 >>>>>>>>>>>>>>>>>>>>>>>>>>>>>>>>>>>>>>>>>>>>>>>>>>>>>>>>>>>>>>>>>>>>>>
 |                                                                    |
 | Reading atom information in unitcell:                              |
 | From the input file and the structure file we know the number of   |
 | different elments in this unitcell, then we list the detail        |
 | information for each element, especially the zeta and polar atomic |
 | orbital number for each element. The total atom number is counted. |
 | We calculate the nearest atom distance for each atom and show the  |
 | Cartesian and Direct coordinates for each atom. We list the file   |
 | address for atomic orbitals. The volume and the lattice vectors    |
 | in real and reciprocal space is also shown.                        |
 |                                                                    |
 <<<<<<<<<<<<<<<<<<<<<<<<<<<<<<<<<<<<<<<<<<<<<<<<<<<<<<<<<<<<<<<<<<<<<<




 READING UNITCELL INFORMATION
                                    ntype = 3
                 atom label for species 1 = C
                 atom label for species 2 = Mo
                 atom label for species 3 = S
                  lattice constant (Bohr) = 1.88973
              lattice constant (Angstrom) = 1

 READING ATOM TYPE 1
                               atom label = C
                      L=0, number of zeta = 2
                      L=1, number of zeta = 2
                      L=2, number of zeta = 1
             number of atom for this type = 32
                      start magnetization = FALSE
                      start magnetization = FALSE
                      start magnetization = FALSE
                      start magnetization = FALSE
                      start magnetization = FALSE
                      start magnetization = FALSE
                      start magnetization = FALSE
                      start magnetization = FALSE
                      start magnetization = FALSE
                      start magnetization = FALSE
                      start magnetization = FALSE
                      start magnetization = FALSE
                      start magnetization = FALSE
                      start magnetization = FALSE
                      start magnetization = FALSE
                      start magnetization = FALSE
                      start magnetization = FALSE
                      start magnetization = FALSE
                      start magnetization = FALSE
                      start magnetization = FALSE
                      start magnetization = FALSE
                      start magnetization = FALSE
                      start magnetization = FALSE
                      start magnetization = FALSE
                      start magnetization = FALSE
                      start magnetization = FALSE
                      start magnetization = FALSE
                      start magnetization = FALSE
                      start magnetization = FALSE
                      start magnetization = FALSE
                      start magnetization = FALSE
                      start magnetization = FALSE

 READING ATOM TYPE 2
                               atom label = Mo
                      L=0, number of zeta = 4
                      L=1, number of zeta = 2
                      L=2, number of zeta = 2
                      L=3, number of zeta = 1
             number of atom for this type = 9
                      start magnetization = FALSE
                      start magnetization = FALSE
                      start magnetization = FALSE
                      start magnetization = FALSE
                      start magnetization = FALSE
                      start magnetization = FALSE
                      start magnetization = FALSE
                      start magnetization = FALSE
                      start magnetization = FALSE

 READING ATOM TYPE 3
                               atom label = S
                      L=0, number of zeta = 2
                      L=1, number of zeta = 2
                      L=2, number of zeta = 1
             number of atom for this type = 18
                      start magnetization = FALSE
                      start magnetization = FALSE
                      start magnetization = FALSE
                      start magnetization = FALSE
                      start magnetization = FALSE
                      start magnetization = FALSE
                      start magnetization = FALSE
                      start magnetization = FALSE
                      start magnetization = FALSE
                      start magnetization = FALSE
                      start magnetization = FALSE
                      start magnetization = FALSE
                      start magnetization = FALSE
                      start magnetization = FALSE
                      start magnetization = FALSE
                      start magnetization = FALSE
                      start magnetization = FALSE
                      start magnetization = FALSE

                        TOTAL ATOM NUMBER = 59

 DIRECT COORDINATES
         atom                   x                   y                   z                 mag                  vx                  vy                  vz
      taud_C1                   0                   0                 0.2                   0                   0                   0                   0
      taud_C2                0.25                   0                 0.2                   0                   0                   0                   0
      taud_C3                 0.5                   0                 0.2                   0                   0                   0                   0
      taud_C4                0.75                   0                 0.2                   0                   0                   0                   0
      taud_C5                   0                0.25                 0.2                   0                   0                   0                   0
      taud_C6                0.25                0.25                 0.2                   0                   0                   0                   0
      taud_C7                 0.5                0.25                 0.2                   0                   0                   0                   0
      taud_C8                0.75                0.25                 0.2                   0                   0                   0                   0
      taud_C9                   0                 0.5                 0.2                   0                   0                   0                   0
     taud_C10                0.25                 0.5                 0.2                   0                   0                   0                   0
     taud_C11                 0.5                 0.5                 0.2                   0                   0                   0                   0
     taud_C12                0.75                 0.5                 0.2                   0                   0                   0                   0
     taud_C13                   0                0.75                 0.2                   0                   0                   0                   0
     taud_C14                0.25                0.75                 0.2                   0                   0                   0                   0
     taud_C15                 0.5                0.75                 0.2                   0                   0                   0                   0
     taud_C16                0.75                0.75                 0.2                   0                   0                   0                   0
     taud_C17            0.166667           0.0833332                 0.2                   0                   0                   0                   0
     taud_C18            0.416667           0.0833332                 0.2                   0                   0                   0                   0
     taud_C19            0.666667           0.0833332                 0.2                   0                   0                   0                   0
     taud_C20            0.916667           0.0833332                 0.2                   0                   0                   0                   0
     taud_C21            0.166667            0.333333                 0.2                   0                   0                   0                   0
     taud_C22            0.416667            0.333333                 0.2                   0                   0                   0                   0
     taud_C23            0.666667            0.333333                 0.2                   0                   0                   0                   0
     taud_C24            0.916667            0.333333                 0.2                   0                   0                   0                   0
     taud_C25            0.166667            0.583333                 0.2                   0                   0                   0                   0
     taud_C26            0.416667            0.583333                 0.2                   0                   0                   0                   0
     taud_C27            0.666667            0.583333                 0.2                   0                   0                   0                   0
     taud_C28            0.916667            0.583333                 0.2                   0                   0                   0                   0
     taud_C29            0.166667            0.833333                 0.2                   0                   0                   0                   0
     taud_C30            0.416667            0.833333                 0.2                   0                   0                   0                   0
     taud_C31            0.666667            0.833333                 0.2                   0                   0                   0                   0
     taud_C32            0.916667            0.833333                 0.2                   0                   0                   0                   0
     taud_Mo1            0.222222            0.111111            0.506315                   0                   0                   0                   0
     taud_Mo2            0.555556            0.111111            0.506315                   0                   0                   0                   0
     taud_Mo3            0.888889            0.111111            0.506315                   0                   0                   0                   0
     taud_Mo4            0.222222            0.444444            0.506315                   0                   0                   0                   0
     taud_Mo5            0.555556            0.444444            0.506315                   0                   0                   0                   0
     taud_Mo6            0.888889            0.444444            0.506315                   0                   0                   0                   0
     taud_Mo7            0.222222            0.777778            0.506315                   0                   0                   0                   0
     taud_Mo8            0.555556            0.777778            0.506315                   0                   0                   0                   0
     taud_Mo9            0.888889            0.777778            0.506315                   0                   0                   0                   0
      taud_S1            0.111111            0.222222            0.581265                   0                   0                   0                   0
      taud_S2            0.444444            0.222222            0.581265                   0                   0                   0                   0
      taud_S3            0.777778            0.222222            0.581265                   0                   0                   0                   0
      taud_S4            0.111111            0.555556            0.581265                   0                   0                   0                   0
      taud_S5            0.444444            0.555556            0.581265                   0                   0                   0                   0
      taud_S6            0.777778            0.555556            0.581265                   0                   0                   0                   0
      taud_S7            0.111111            0.888889            0.581265                   0                   0                   0                   0
      taud_S8            0.444444            0.888889            0.581265                   0                   0                   0                   0
      taud_S9            0.777778            0.888889            0.581265                   0                   0                   0                   0
     taud_S10            0.111111            0.222222            0.431365                   0                   0                   0                   0
     taud_S11            0.444444            0.222222            0.431365                   0                   0                   0                   0
     taud_S12            0.777778            0.222222            0.431365                   0                   0                   0                   0
     taud_S13            0.111111            0.555556            0.431365                   0                   0                   0                   0
     taud_S14            0.444444            0.555556            0.431365                   0                   0                   0                   0
     taud_S15            0.777778            0.555556            0.431365                   0                   0                   0                   0
     taud_S16            0.111111            0.888889            0.431365                   0                   0                   0                   0
     taud_S17            0.444444            0.888889            0.431365                   0                   0                   0                   0
     taud_S18            0.777778            0.888889            0.431365                   0                   0                   0                   0


 READING ORBITAL FILE NAMES FOR LCAO
 orbital file: C_gga_7au_60Ry_2s2p1d.orb
 orbital file: Mo_gga_8au_60Ry_4s2p2d1f.orb
 orbital file: S_gga_7au_60Ry_2s2p1d.orb

                          Volume (Bohr^3) = 11317.4
                             Volume (A^3) = 1677.07

 Lattice vectors: (Cartesian coordinate: in unit of a_0)
                +9.84                  +0                  +0
                -4.92            +8.52169                  +0
                   +0                  +0                 +20
 Reciprocal vectors: (Cartesian coordinate: in unit of 2 pi/a_0)
            +0.101626          +0.0586738                  -0
                   -0           +0.117348                  -0
                   +0                  -0               +0.05




 >>>>>>>>>>>>>>>>>>>>>>>>>>>>>>>>>>>>>>>>>>>>>>>>>>>>>>>>>>>>>>>>>>>>>>
 |                                                                    |
 | Reading pseudopotentials files:                                    |
 | The pseudopotential file is in UPF format. The 'NC' indicates that |
 | the type of pseudopotential is 'norm conserving'. Functional of    |
 | exchange and correlation is decided by 4 given parameters in UPF   |
 | file.  We also read in the 'core correction' if there exists.      |
 | Also we can read the valence electrons number and the maximal      |
 | angular momentum used in this pseudopotential. We also read in the |
 | trail wave function, trail atomic density and local-pseudopotential|
 | on logrithmic grid. The non-local pseudopotential projector is also|
 | read in if there is any.                                           |
 |                                                                    |
 <<<<<<<<<<<<<<<<<<<<<<<<<<<<<<<<<<<<<<<<<<<<<<<<<<<<<<<<<<<<<<<<<<<<<<




                PAO radial cut off (Bohr) = 15

 Read in pseudopotential file is ./C_ONCV_PBE-1.0.upf
                     pseudopotential type = NC
          exchange-correlation functional = PBE
                 nonlocal core correction = 0
                        valence electrons = 4
                                     lmax = 1
                           number of zeta = 0
                     number of projectors = 4
                           L of projector = 0
                           L of projector = 0
                           L of projector = 1
                           L of projector = 1
                PAO radial cut off (Bohr) = 15

 Read in pseudopotential file is ./Mo_ONCV_PBE-1.0.upf
                     pseudopotential type = NC
          exchange-correlation functional = PBE
                 nonlocal core correction = 0
                        valence electrons = 14
                                     lmax = 2
                           number of zeta = 0
                     number of projectors = 6
                           L of projector = 0
                           L of projector = 0
                           L of projector = 1
                           L of projector = 1
                           L of projector = 2
                           L of projector = 2
                PAO radial cut off (Bohr) = 15

 Read in pseudopotential file is ./S_ONCV_PBE-1.0.upf
                     pseudopotential type = NC
          exchange-correlation functional = PBE
                 nonlocal core correction = 0
                        valence electrons = 6
                                     lmax = 1
                           number of zeta = 0
                     number of projectors = 4
                           L of projector = 0
                           L of projector = 0
                           L of projector = 1
                           L of projector = 1
     initial pseudo atomic orbital number = 0
                                   NLOCAL = 893

%%%%%%%%%%%%%%%%%%%%%%%%%%%%%%%%%%%%%%%%%%%%%%%%%%%%%%%%%%%%%%%%%%%%%%%
 Warning: number valence electrons > 6 for Mo: [Kr] 4d5 5s1
 Please make sure the pseudopential file is what you need
%%%%%%%%%%%%%%%%%%%%%%%%%%%%%%%%%%%%%%%%%%%%%%%%%%%%%%%%%%%%%%%%%%%%%%%
                  




 >>>>>>>>>>>>>>>>>>>>>>>>>>>>>>>>>>>>>>>>>>>>>>>>>>>>>>>>>>>>>>>>>>>>>>
 |                                                                    |
 | Setup plane waves of charge/potential:                             |
 | Use the energy cutoff and the lattice vectors to generate the      |
 | dimensions of FFT grid. The number of FFT grid on each processor   |
 | is 'nrxx'. The number of plane wave basis in reciprocal space is   |
 | different for charege/potential and wave functions. We also set    |
 | the 'sticks' for the parallel of FFT. The number of plane waves    |
 | is 'npw' in each processor.                                        |
 <<<<<<<<<<<<<<<<<<<<<<<<<<<<<<<<<<<<<<<<<<<<<<<<<<<<<<<<<<<<<<<<<<<<<<





 SETUP THE PLANE WAVE BASIS
 energy cutoff for charge/potential (unit:Ry) = 240
          [fft grid for charge/potential] = 96, 96, 192
                      [fft grid division] = 2, 2, 2
      [big fft grid for charge/potential] = 48, 48, 96
                                     nbxx = 13824
                                     nrxx = 110592

 SETUP PLANE WAVES FOR CHARGE/POTENTIAL
                    number of plane waves = 710497
                         number of sticks = 5719

 PARALLEL PW FOR CHARGE/POTENTIAL
     PROC   COLUMNS(POT)             PW
        1            357          44405
        2            357          44405
        3            357          44405
        4            357          44405
        5            358          44408
        6            358          44408
        7            358          44408
        8            358          44408
        9            358          44408
       10            358          44408
       11            357          44405
       12            357          44405
       13            357          44405
       14            358          44408
       15            357          44403
       16            357          44403
 --------------- sum -------------------
       16           5719         710497
                            number of |g| = 15709
                                  max |g| = 21.7087
                                  min |g| = 0.0413114

 SETUP THE ELECTRONS NUMBER
             electron number of element C = 4
       total electron number of element C = 128
            electron number of element Mo = 14
      total electron number of element Mo = 126
             electron number of element S = 6
       total electron number of element S = 108
            AUTOSET number of electrons:  = 362
 DONE : SETUP UNITCELL Time : 0.0740094 (SEC)





 >>>>>>>>>>>>>>>>>>>>>>>>>>>>>>>>>>>>>>>>>>>>>>>>>>>>>>>>>>>>>>>>>>>>>>
 |                                                                    |
 | Setup K-points                                                     |
 | We setup the k-points according to input parameters.               |
 | The reduced k-points are set according to symmetry operations.     |
 | We treat the spin as another set of k-points.                      |
 |                                                                    |
 <<<<<<<<<<<<<<<<<<<<<<<<<<<<<<<<<<<<<<<<<<<<<<<<<<<<<<<<<<<<<<<<<<<<<<





 SETUP K-POINTS
                                    nspin = 1
                                   nkstot = 101

  KPOINTS            DIRECT_X            DIRECT_Y            DIRECT_Z              WEIGHT
        1                   2                   0                   0                   1
        2                1.96                   0                   0                   1
        3                1.92                   0                   0                   1
        4                1.88                   0                   0                   1
        5                1.84                   0                   0                   1
        6                 1.8                   0                   0                   1
        7                1.76                   0                   0                   1
        8                1.72                   0                   0                   1
        9                1.68                   0                   0                   1
       10                1.64                   0                   0                   1
       11                 1.6                   0                   0                   1
       12                1.56                   0                   0                   1
       13                1.52                   0                   0                   1
       14                1.48                   0                   0                   1
       15                1.44                   0                   0                   1
       16                 1.4                   0                   0                   1
       17                1.36                   0                   0                   1
       18                1.32                   0                   0                   1
       19                1.28                   0                   0                   1
       20                1.24                   0                   0                   1
       21                 1.2                   0                   0                   1
       22                1.16                   0                   0                   1
       23                1.12                   0                   0                   1
       24                1.08                   0                   0                   1
       25                1.04                   0                   0                   1
       26                   1                   0                   0                   1
       27                0.96                   0                   0                   1
       28                0.92                   0                   0                   1
       29                0.88                   0                   0                   1
       30                0.84                   0                   0                   1
       31                 0.8                   0                   0                   1
       32                0.76                   0                   0                   1
       33                0.72                   0                   0                   1
       34                0.68                   0                   0                   1
       35                0.64                   0                   0                   1
       36                 0.6                   0                   0                   1
       37                0.56                   0                   0                   1
       38                0.52                   0                   0                   1
       39                0.48                   0                   0                   1
       40                0.44                   0                   0                   1
       41                 0.4                   0                   0                   1
       42                0.36                   0                   0                   1
       43                0.32                   0                   0                   1
       44                0.28                   0                   0                   1
       45                0.24                   0                   0                   1
       46                 0.2                   0                   0                   1
       47                0.16                   0                   0                   1
       48                0.12                   0                   0                   1
       49                0.08                   0                   0                   1
       50                0.04                   0                   0                   1
       51                   0                   0                   0                   1
       52           0.0266667           0.0266667                   0                   1
       53           0.0533333           0.0533333                   0                   1
       54                0.08                0.08                   0                   1
       55            0.106667            0.106667                   0                   1
       56            0.133333            0.133333                   0                   1
       57                0.16                0.16                   0                   1
       58            0.186667            0.186667                   0                   1
       59            0.213333            0.213333                   0                   1
       60                0.24                0.24                   0                   1
       61            0.266667            0.266667                   0                   1
       62            0.293333            0.293333                   0                   1
       63                0.32                0.32                   0                   1
       64            0.346667            0.346667                   0                   1
       65            0.373333            0.373333                   0                   1
       66                 0.4                 0.4                   0                   1
       67            0.426667            0.426667                   0                   1
       68            0.453333            0.453333                   0                   1
       69                0.48                0.48                   0                   1
       70            0.506667            0.506667                   0                   1
       71            0.533333            0.533333                   0                   1
       72                0.56                0.56                   0                   1
       73            0.586667            0.586667                   0                   1
       74            0.613333            0.613333                   0                   1
       75                0.64                0.64                   0                   1
       76            0.666667            0.666667                   0                   1
       77            0.693333            0.693333                   0                   1
       78                0.72                0.72                   0                   1
       79            0.746667            0.746667                   0                   1
       80            0.773333            0.773333                   0                   1
       81                 0.8                 0.8                   0                   1
       82            0.826667            0.826667                   0                   1
       83            0.853333            0.853333                   0                   1
       84                0.88                0.88                   0                   1
       85            0.906667            0.906667                   0                   1
       86            0.933333            0.933333                   0                   1
       87                0.96                0.96                   0                   1
       88            0.986667            0.986667                   0                   1
       89             1.01333             1.01333                   0                   1
       90                1.04                1.04                   0                   1
       91             1.06667             1.06667                   0                   1
       92             1.09333             1.09333                   0                   1
       93                1.12                1.12                   0                   1
       94             1.14667             1.14667                   0                   1
       95             1.17333             1.17333                   0                   1
       96                 1.2                 1.2                   0                   1
       97             1.22667             1.22667                   0                   1
       98             1.25333             1.25333                   0                   1
       99                1.28                1.28                   0                   1
      100             1.30667             1.30667                   0                   1
      101             1.33333             1.33333                   0                   1

           k-point number in this process = 101
       minimum distributed K point number = 101

  KPOINTS         CARTESIAN_X         CARTESIAN_Y         CARTESIAN_Z              WEIGHT
        1            0.203252            0.117348                   0            0.019802
        2            0.199187            0.115001                   0            0.019802
        3            0.195122            0.112654                   0            0.019802
        4            0.191057            0.110307                   0            0.019802
        5            0.186992             0.10796                   0            0.019802
        6            0.182927            0.105613                   0            0.019802
        7            0.178862            0.103266                   0            0.019802
        8            0.174797            0.100919                   0            0.019802
        9            0.170732            0.098572                   0            0.019802
       10            0.166667            0.096225                   0            0.019802
       11            0.162602           0.0938781                   0            0.019802
       12            0.158537           0.0915311                   0            0.019802
       13            0.154472           0.0891842                   0            0.019802
       14            0.150407           0.0868372                   0            0.019802
       15            0.146341           0.0844903                   0            0.019802
       16            0.142276           0.0821433                   0            0.019802
       17            0.138211           0.0797964                   0            0.019802
       18            0.134146           0.0774494                   0            0.019802
       19            0.130081           0.0751025                   0            0.019802
       20            0.126016           0.0727555                   0            0.019802
       21            0.121951           0.0704086                   0            0.019802
       22            0.117886           0.0680616                   0            0.019802
       23            0.113821           0.0657147                   0            0.019802
       24            0.109756           0.0633677                   0            0.019802
       25            0.105691           0.0610208                   0            0.019802
       26            0.101626           0.0586738                   0            0.019802
       27            0.097561           0.0563269                   0            0.019802
       28           0.0934959           0.0539799                   0            0.019802
       29           0.0894309            0.051633                   0            0.019802
       30           0.0853659            0.049286                   0            0.019802
       31           0.0813008            0.046939                   0            0.019802
       32           0.0772358           0.0445921                   0            0.019802
       33           0.0731707           0.0422451                   0            0.019802
       34           0.0691057           0.0398982                   0            0.019802
       35           0.0650406           0.0375512                   0            0.019802
       36           0.0609756           0.0352043                   0            0.019802
       37           0.0569106           0.0328573                   0            0.019802
       38           0.0528455           0.0305104                   0            0.019802
       39           0.0487805           0.0281634                   0            0.019802
       40           0.0447154           0.0258165                   0            0.019802
       41           0.0406504           0.0234695                   0            0.019802
       42           0.0365854           0.0211226                   0            0.019802
       43           0.0325203           0.0187756                   0            0.019802
       44           0.0284553           0.0164287                   0            0.019802
       45           0.0243902           0.0140817                   0            0.019802
       46           0.0203252           0.0117348                   0            0.019802
       47           0.0162602          0.00938781                   0            0.019802
       48           0.0121951          0.00704086                   0            0.019802
       49          0.00813008           0.0046939                   0            0.019802
       50          0.00406504          0.00234695                   0            0.019802
       51                   0                   0                   0            0.019802
       52          0.00271003           0.0046939                   0            0.019802
       53          0.00542005          0.00938781                   0            0.019802
       54          0.00813008           0.0140817                   0            0.019802
       55           0.0108401           0.0187756                   0            0.019802
       56           0.0135501           0.0234695                   0            0.019802
       57           0.0162602           0.0281634                   0            0.019802
       58           0.0189702           0.0328573                   0            0.019802
       59           0.0216802           0.0375512                   0            0.019802
       60           0.0243902           0.0422451                   0            0.019802
       61           0.0271003            0.046939                   0            0.019802
       62           0.0298103            0.051633                   0            0.019802
       63           0.0325203           0.0563269                   0            0.019802
       64           0.0352304           0.0610208                   0            0.019802
       65           0.0379404           0.0657147                   0            0.019802
       66           0.0406504           0.0704086                   0            0.019802
       67           0.0433604           0.0751025                   0            0.019802
       68           0.0460705           0.0797964                   0            0.019802
       69           0.0487805           0.0844903                   0            0.019802
       70           0.0514905           0.0891842                   0            0.019802
       71           0.0542005           0.0938781                   0            0.019802
       72           0.0569106            0.098572                   0            0.019802
       73           0.0596206            0.103266                   0            0.019802
       74           0.0623306             0.10796                   0            0.019802
       75           0.0650406            0.112654                   0            0.019802
       76           0.0677507            0.117348                   0            0.019802
       77           0.0704607            0.122042                   0            0.019802
       78           0.0731707            0.126735                   0            0.019802
       79           0.0758808            0.131429                   0            0.019802
       80           0.0785908            0.136123                   0            0.019802
       81           0.0813008            0.140817                   0            0.019802
       82           0.0840108            0.145511                   0            0.019802
       83           0.0867209            0.150205                   0            0.019802
       84           0.0894309            0.154899                   0            0.019802
       85           0.0921409            0.159593                   0            0.019802
       86           0.0948509            0.164287                   0            0.019802
       87            0.097561            0.168981                   0            0.019802
       88            0.100271            0.173674                   0            0.019802
       89            0.102981            0.178368                   0            0.019802
       90            0.105691            0.183062                   0            0.019802
       91            0.108401            0.187756                   0            0.019802
       92            0.111111             0.19245                   0            0.019802
       93            0.113821            0.197144                   0            0.019802
       94            0.116531            0.201838                   0            0.019802
       95            0.119241            0.206532                   0            0.019802
       96            0.121951            0.211226                   0            0.019802
       97            0.124661             0.21592                   0            0.019802
       98            0.127371            0.220614                   0            0.019802
       99            0.130081            0.225307                   0            0.019802
      100            0.132791            0.230001                   0            0.019802
      101            0.135501            0.234695                   0            0.019802

  KPOINTS            DIRECT_X            DIRECT_Y            DIRECT_Z              WEIGHT
        1                   2                   0                   0            0.019802
        2                1.96                   0                   0            0.019802
        3                1.92                   0                   0            0.019802
        4                1.88                   0                   0            0.019802
        5                1.84                   0                   0            0.019802
        6                 1.8                   0                   0            0.019802
        7                1.76                   0                   0            0.019802
        8                1.72                   0                   0            0.019802
        9                1.68                   0                   0            0.019802
       10                1.64                   0                   0            0.019802
       11                 1.6                   0                   0            0.019802
       12                1.56                   0                   0            0.019802
       13                1.52                   0                   0            0.019802
       14                1.48                   0                   0            0.019802
       15                1.44                   0                   0            0.019802
       16                 1.4                   0                   0            0.019802
       17                1.36                   0                   0            0.019802
       18                1.32                   0                   0            0.019802
       19                1.28                   0                   0            0.019802
       20                1.24                   0                   0            0.019802
       21                 1.2                   0                   0            0.019802
       22                1.16                   0                   0            0.019802
       23                1.12                   0                   0            0.019802
       24                1.08                   0                   0            0.019802
       25                1.04                   0                   0            0.019802
       26                   1                   0                   0            0.019802
       27                0.96                   0                   0            0.019802
       28                0.92                   0                   0            0.019802
       29                0.88                   0                   0            0.019802
       30                0.84                   0                   0            0.019802
       31                 0.8                   0                   0            0.019802
       32                0.76                   0                   0            0.019802
       33                0.72                   0                   0            0.019802
       34                0.68                   0                   0            0.019802
       35                0.64                   0                   0            0.019802
       36                 0.6                   0                   0            0.019802
       37                0.56                   0                   0            0.019802
       38                0.52                   0                   0            0.019802
       39                0.48                   0                   0            0.019802
       40                0.44                   0                   0            0.019802
       41                 0.4                   0                   0            0.019802
       42                0.36                   0                   0            0.019802
       43                0.32                   0                   0            0.019802
       44                0.28                   0                   0            0.019802
       45                0.24                   0                   0            0.019802
       46                 0.2                   0                   0            0.019802
       47                0.16                   0                   0            0.019802
       48                0.12                   0                   0            0.019802
       49                0.08                   0                   0            0.019802
       50                0.04                   0                   0            0.019802
       51                   0                   0                   0            0.019802
       52           0.0266667           0.0266667                   0            0.019802
       53           0.0533333           0.0533333                   0            0.019802
       54                0.08                0.08                   0            0.019802
       55            0.106667            0.106667                   0            0.019802
       56            0.133333            0.133333                   0            0.019802
       57                0.16                0.16                   0            0.019802
       58            0.186667            0.186667                   0            0.019802
       59            0.213333            0.213333                   0            0.019802
       60                0.24                0.24                   0            0.019802
       61            0.266667            0.266667                   0            0.019802
       62            0.293333            0.293333                   0            0.019802
       63                0.32                0.32                   0            0.019802
       64            0.346667            0.346667                   0            0.019802
       65            0.373333            0.373333                   0            0.019802
       66                 0.4                 0.4                   0            0.019802
       67            0.426667            0.426667                   0            0.019802
       68            0.453333            0.453333                   0            0.019802
       69                0.48                0.48                   0            0.019802
       70            0.506667            0.506667                   0            0.019802
       71            0.533333            0.533333                   0            0.019802
       72                0.56                0.56                   0            0.019802
       73            0.586667            0.586667                   0            0.019802
       74            0.613333            0.613333                   0            0.019802
       75                0.64                0.64                   0            0.019802
       76            0.666667            0.666667                   0            0.019802
       77            0.693333            0.693333                   0            0.019802
       78                0.72                0.72                   0            0.019802
       79            0.746667            0.746667                   0            0.019802
       80            0.773333            0.773333                   0            0.019802
       81                 0.8                 0.8                   0            0.019802
       82            0.826667            0.826667                   0            0.019802
       83            0.853333            0.853333                   0            0.019802
       84                0.88                0.88                   0            0.019802
       85            0.906667            0.906667                   0            0.019802
       86            0.933333            0.933333                   0            0.019802
       87                0.96                0.96                   0            0.019802
       88            0.986667            0.986667                   0            0.019802
       89             1.01333             1.01333                   0            0.019802
       90                1.04                1.04                   0            0.019802
       91             1.06667             1.06667                   0            0.019802
       92             1.09333             1.09333                   0            0.019802
       93                1.12                1.12                   0            0.019802
       94             1.14667             1.14667                   0            0.019802
       95             1.17333             1.17333                   0            0.019802
       96                 1.2                 1.2                   0            0.019802
       97             1.22667             1.22667                   0            0.019802
       98             1.25333             1.25333                   0            0.019802
       99                1.28                1.28                   0            0.019802
      100             1.30667             1.30667                   0            0.019802
      101             1.33333             1.33333                   0            0.019802
 DONE : INIT K-POINTS Time : 0.0892552 (SEC)

                           occupied bands = 181
                                   NLOCAL = 893
                                   NBANDS = 217
                                   NBANDS = 217




 >>>>>>>>>>>>>>>>>>>>>>>>>>>>>>>>>>>>>>>>>>>>>>>>>>>>>>>>>>>>>>>>>>>>>>
 |                                                                    |
 | Setup numerical orbitals:                                          |
 | This part setup: numerical atomic orbitals, non-local projectors   |
 | and neutral potential (1D). The atomic orbitals information        |
 | including the radius, angular momentum and zeta number.            |
 | The neutral potential is the sum of local part of pseudopotential  |
 | and potential given by atomic charge, they will cancel out beyond  |
 | a certain radius cutoff, because the Z/r character.                |
 |                                                                    |
 <<<<<<<<<<<<<<<<<<<<<<<<<<<<<<<<<<<<<<<<<<<<<<<<<<<<<<<<<<<<<<<<<<<<<<





 SETUP ONE DIMENSIONAL ORBITALS/POTENTIAL
                        delta k  (1/Bohr) = 0.01
                        delta r    (Bohr) = 0.01
                        dr_uniform (Bohr) = 0.001
                        rmax       (Bohr) = 30
                                    kmesh = 779
      ORBITAL  L  N      nr      dr    RCUT  CHECK_UNIT    NEW_UNIT
            1  0  0     701    0.01       7           1           1
            2  0  1     701    0.01       7           1           1
            3  1  0     701    0.01       7           1           1
            4  1  1     701    0.01       7           1           1
            5  2  0     701    0.01       7           1           1
      ORBITAL  L  N      nr      dr    RCUT  CHECK_UNIT    NEW_UNIT
            1  0  0     801    0.01       8           1           1
            2  0  1     801    0.01       8           1           1
            3  0  2     801    0.01       8           1           1
            4  0  3     801    0.01       8           1           1
            5  1  0     801    0.01       8           1           1
            6  1  1     801    0.01       8           1           1
            7  2  0     801    0.01       8           1           1
            8  2  1     801    0.01       8           1           1
            9  3  0     801    0.01       8           1           1
      ORBITAL  L  N      nr      dr    RCUT  CHECK_UNIT    NEW_UNIT
            1  0  0     701    0.01       7           1           1
            2  0  1     701    0.01       7           1           1
            3  1  0     701    0.01       7           1           1
            4  1  1     701    0.01       7           1           1
            5  2  0     701    0.01       7           1           1
 SET NONLOCAL PSEUDOPOTENTIAL PROJECTORS
 SET NONLOCAL PSEUDOPOTENTIAL PROJECTORS
 SET NONLOCAL PSEUDOPOTENTIAL PROJECTORS
 max number of nonlocal projetors among all species is 6

 SETUP THE TWO-CENTER INTEGRATION TABLES

 SETUP THE DIVISION OF H/S MATRIX
 divide the H&S matrix using 2D block algorithms.
                                     nb2d = 32
                  trace_loc_row dimension = 893
                  trace_loc_col dimension = 893
                                     nloc = 50176




 >>>>>>>>>>>>>>>>>>>>>>>>>>>>>>>>>>>>>>>>>>>>>>>>>>>>>>>>>>>>>>>>>>>>>>
 |                                                                    |
 | Search adjacent atoms:                                             |
 | Set the adjacent atoms for each atom and set the periodic boundary |
 | condition for the atoms on real space FFT grid. For k-dependent    |
 | algorithm, we also need to set the sparse H and S matrix element   |
 | for each atom.                                                     |
 |                                                                    |
 <<<<<<<<<<<<<<<<<<<<<<<<<<<<<<<<<<<<<<<<<<<<<<<<<<<<<<<<<<<<<<<<<<<<<<





 SETUP SEARCHING RADIUS FOR PROGRAM TO SEARCH ADJACENT ATOMS
                  longest orb rcut (Bohr) = 8
   longest nonlocal projector rcut (Bohr) = 2.82
              searching radius is (Bohr)) = 21.7
         searching radius unit is (Bohr)) = 1.89

 SETUP EXTENDED REAL SPACE GRID FOR GRID INTEGRATION
                        [real space grid] = 96, 96, 192
               [big cell numbers in grid] = 48, 48, 96
           [meshcell numbers in big cell] = 2, 2, 2
                      [extended fft grid] = 24, 24, 21
              [dimension of extened grid] = 97, 97, 139
                            UnitCellTotal = 27
              Atom number in sub-FFT-grid = 32
    Local orbitals number in sub-FFT-grid = 416
                                ParaV.nnr = 105968
                                     nnrg = 362336
Successful completion of Potential's registration : local
Successful completion of Potential's registration : hartree
Successful completion of Potential's registration : xc
Successful completion of Potential's registration : tddft
 Memory of pvpR : 2.76 MB
                                nnrg_last = 0
                                 nnrg_now = 362336
                                 init_chg = file
 try to read charge from file : OUT.ABACUS/SPIN1_CHG
 Find the file, try to read charge from file.
 read in fermi energy = 0.146
 Read in the charge density: OUT.ABACUS/SPIN1_CHG
 end of band structure calculation 
 band eigenvalue in this processor (eV) :
 k-points1(101): 0.203252 0.117348 0
 spin1final_state 1 -60.21 0
 spin1final_state 2 -60.1899 0
 spin1final_state 3 -60.1899 0
 spin1final_state 4 -60.1899 0
 spin1final_state 5 -60.1897 0
 spin1final_state 6 -60.1897 0
 spin1final_state 7 -60.1896 0
 spin1final_state 8 -60.1805 0
 spin1final_state 9 -60.1804 0
 spin1final_state 10 -34.4185 0
 spin1final_state 11 -34.4185 0
 spin1final_state 12 -34.4142 0
 spin1final_state 13 -34.4141 0
 spin1final_state 14 -34.4141 0
 spin1final_state 15 -34.4141 0
 spin1final_state 16 -34.414 0
 spin1final_state 17 -34.414 0
 spin1final_state 18 -34.3744 0
 spin1final_state 19 -34.3744 0
 spin1final_state 20 -34.2673 0
 spin1final_state 21 -34.2469 0
 spin1final_state 22 -34.2468 0
 spin1final_state 23 -34.2468 0
 spin1final_state 24 -34.2467 0
 spin1final_state 25 -34.2467 0
 spin1final_state 26 -34.2466 0
 spin1final_state 27 -34.2229 0
 spin1final_state 28 -34.2228 0
 spin1final_state 29 -34.2228 0
 spin1final_state 30 -34.2227 0
 spin1final_state 31 -34.2227 0
 spin1final_state 32 -34.2225 0
 spin1final_state 33 -34.2006 0
 spin1final_state 34 -34.2005 0
 spin1final_state 35 -34.1968 0
 spin1final_state 36 -34.1968 0
 spin1final_state 37 -17.5434 0
 spin1final_state 38 -16.093 0
 spin1final_state 39 -16.093 0
 spin1final_state 40 -16.093 0
 spin1final_state 41 -16.0928 0
 spin1final_state 42 -16.0928 0
 spin1final_state 43 -16.0927 0
 spin1final_state 44 -13.2922 0
 spin1final_state 45 -13.2922 0
 spin1final_state 46 -13.2922 0
 spin1final_state 47 -13.2922 0
 spin1final_state 48 -13.2922 0
 spin1final_state 49 -13.2921 0
 spin1final_state 50 -13.2535 0
 spin1final_state 51 -12.3152 0
 spin1final_state 52 -12.3152 0
 spin1final_state 53 -12.3152 0
 spin1final_state 54 -12.1125 0
 spin1final_state 55 -12.1125 0
 spin1final_state 56 -12.1125 0
 spin1final_state 57 -12.1124 0
 spin1final_state 58 -12.1124 0
 spin1final_state 59 -12.1124 0
 spin1final_state 60 -11.7313 0
 spin1final_state 61 -11.4336 0
 spin1final_state 62 -11.4336 0
 spin1final_state 63 -11.361 0
 spin1final_state 64 -11.361 0
 spin1final_state 65 -11.3609 0
 spin1final_state 66 -11.3609 0
 spin1final_state 67 -11.3609 0
 spin1final_state 68 -11.3609 0
 spin1final_state 69 -11.3433 0
 spin1final_state 70 -11.3433 0
 spin1final_state 71 -11.3433 0
 spin1final_state 72 -11.1018 0
 spin1final_state 73 -11.1018 0
 spin1final_state 74 -8.60432 0
 spin1final_state 75 -8.60432 0
 spin1final_state 76 -8.60428 0
 spin1final_state 77 -8.60428 0
 spin1final_state 78 -8.60426 0
 spin1final_state 79 -8.60426 0
 spin1final_state 80 -7.08129 0
 spin1final_state 81 -7.08129 0
 spin1final_state 82 -7.08102 0
 spin1final_state 83 -7.08102 0
 spin1final_state 84 -7.08094 0
 spin1final_state 85 -7.08094 0
 spin1final_state 86 -5.63435 0
 spin1final_state 87 -5.52981 0
 spin1final_state 88 -5.52971 0
 spin1final_state 89 -5.5297 0
 spin1final_state 90 -5.5295 0
 spin1final_state 91 -5.52949 0
 spin1final_state 92 -5.5294 0
 spin1final_state 93 -4.69218 0
 spin1final_state 94 -4.54267 0
 spin1final_state 95 -4.54267 0
 spin1final_state 96 -4.54265 0
 spin1final_state 97 -4.49545 0
 spin1final_state 98 -4.49544 0
 spin1final_state 99 -4.44381 0
 spin1final_state 100 -4.44381 0
 spin1final_state 101 -4.4438 0
 spin1final_state 102 -4.44376 0
 spin1final_state 103 -4.44376 0
 spin1final_state 104 -4.44375 0
 spin1final_state 105 -3.90953 0
 spin1final_state 106 -3.90946 0
 spin1final_state 107 -3.90946 0
 spin1final_state 108 -3.90925 0
 spin1final_state 109 -3.90925 0
 spin1final_state 110 -3.90914 0
 spin1final_state 111 -3.65185 0
 spin1final_state 112 -3.65184 0
 spin1final_state 113 -3.20353 0
 spin1final_state 114 -3.20353 0
 spin1final_state 115 -3.18248 0
 spin1final_state 116 -3.18247 0
 spin1final_state 117 -3.18244 0
 spin1final_state 118 -3.18243 0
 spin1final_state 119 -3.1824 0
 spin1final_state 120 -3.1824 0
 spin1final_state 121 -3.17495 0
 spin1final_state 122 -3.17493 0
 spin1final_state 123 -3.17492 0
 spin1final_state 124 -3.17489 0
 spin1final_state 125 -3.17488 0
 spin1final_state 126 -3.17486 0
 spin1final_state 127 -3.12251 0
 spin1final_state 128 -3.12247 0
 spin1final_state 129 -3.12246 0
 spin1final_state 130 -3.12241 0
 spin1final_state 131 -3.12241 0
 spin1final_state 132 -3.12239 0
 spin1final_state 133 -2.81646 0
 spin1final_state 134 -2.81646 0
 spin1final_state 135 -2.26513 0
 spin1final_state 136 -2.26511 0
 spin1final_state 137 -2.26511 0
 spin1final_state 138 -2.26507 0
 spin1final_state 139 -2.26502 0
 spin1final_state 140 -2.26502 0
 spin1final_state 141 -2.217 0
 spin1final_state 142 -2.21699 0
 spin1final_state 143 -1.86739 0
 spin1final_state 144 -1.86739 0
 spin1final_state 145 -1.16067 0
 spin1final_state 146 -1.16063 0
 spin1final_state 147 -1.04681 0
 spin1final_state 148 -1.04677 0
 spin1final_state 149 -1.0462 0
 spin1final_state 150 -1.0462 0
 spin1final_state 151 -0.992541 0
 spin1final_state 152 -0.992525 0
 spin1final_state 153 -0.992516 0
 spin1final_state 154 -0.992474 0
 spin1final_state 155 -0.992471 0
 spin1final_state 156 -0.992466 0
 spin1final_state 157 -0.746545 0
 spin1final_state 158 -0.746518 0
 spin1final_state 159 -0.746202 0
 spin1final_state 160 -0.746202 0
 spin1final_state 161 -0.741558 0
 spin1final_state 162 -0.741558 0
 spin1final_state 163 -0.535453 0
 spin1final_state 164 -0.492507 0
 spin1final_state 165 -0.492497 0
 spin1final_state 166 -0.4923 0
 spin1final_state 167 -0.490175 0
 spin1final_state 168 -0.490155 0
 spin1final_state 169 -0.490118 0
 spin1final_state 170 -0.366048 0
 spin1final_state 171 -0.365873 0
 spin1final_state 172 -0.365863 0
 spin1final_state 173 -0.00583482 0
 spin1final_state 174 -0.00581305 0
 spin1final_state 175 -0.0057584 0
 spin1final_state 176 -0.00555596 0
 spin1final_state 177 -0.00550947 0
 spin1final_state 178 -0.00544617 0
 spin1final_state 179 0.653393 0
 spin1final_state 180 0.653394 0
 spin1final_state 181 1.29093 0
 spin1final_state 182 2.02428 0
 spin1final_state 183 2.02433 0
 spin1final_state 184 2.85797 0
 spin1final_state 185 2.85798 0
 spin1final_state 186 2.85801 0
 spin1final_state 187 2.85805 0
 spin1final_state 188 2.85807 0
 spin1final_state 189 2.85811 0
 spin1final_state 190 3.22695 0
 spin1final_state 191 3.22696 0
 spin1final_state 192 3.22698 0
 spin1final_state 193 3.22703 0
 spin1final_state 194 3.22705 0
 spin1final_state 195 3.2271 0
 spin1final_state 196 3.43594 0
 spin1final_state 197 3.43598 0
 spin1final_state 198 3.79483 0
 spin1final_state 199 3.79485 0
 spin1final_state 200 3.79493 0
 spin1final_state 201 3.80775 0
 spin1final_state 202 3.80777 0
 spin1final_state 203 4.1679 0
 spin1final_state 204 4.16791 0
 spin1final_state 205 4.16795 0
 spin1final_state 206 4.16837 0
 spin1final_state 207 4.16844 0
 spin1final_state 208 4.16846 0
 spin1final_state 209 4.17356 0
 spin1final_state 210 4.17356 0
 spin1final_state 211 4.27484 0
 spin1final_state 212 4.27494 0
 spin1final_state 213 4.85188 0
 spin1final_state 214 4.85241 0
 spin1final_state 215 4.85243 0
 spin1final_state 216 4.85386 0
 spin1final_state 217 4.85388 0

 k-points2(101): 0.199187 0.115001 0
 spin1final_state 1 -60.2099 0
 spin1final_state 2 -60.1908 0
 spin1final_state 3 -60.1903 0
 spin1final_state 4 -60.1902 0
 spin1final_state 5 -60.1893 0
 spin1final_state 6 -60.1892 0
 spin1final_state 7 -60.1888 0
 spin1final_state 8 -60.1805 0
 spin1final_state 9 -60.1805 0
 spin1final_state 10 -34.4241 0
 spin1final_state 11 -34.4194 0
 spin1final_state 12 -34.4193 0
 spin1final_state 13 -34.4191 0
 spin1final_state 14 -34.4191 0
 spin1final_state 15 -34.4089 0
 spin1final_state 16 -34.4088 0
 spin1final_state 17 -34.4035 0
 spin1final_state 18 -34.3733 0
 spin1final_state 19 -34.3733 0
 spin1final_state 20 -34.2672 0
 spin1final_state 21 -34.2491 0
 spin1final_state 22 -34.2482 0
 spin1final_state 23 -34.2482 0
 spin1final_state 24 -34.2458 0
 spin1final_state 25 -34.2458 0
 spin1final_state 26 -34.2443 0
 spin1final_state 27 -34.225 0
 spin1final_state 28 -34.2238 0
 spin1final_state 29 -34.2238 0
 spin1final_state 30 -34.2217 0
 spin1final_state 31 -34.2216 0
 spin1final_state 32 -34.2206 0
 spin1final_state 33 -34.2006 0
 spin1final_state 34 -34.2005 0
 spin1final_state 35 -34.1973 0
 spin1final_state 36 -34.1969 0
 spin1final_state 37 -17.5411 0
 spin1final_state 38 -16.2058 0
 spin1final_state 39 -16.1481 0
 spin1final_state 40 -16.1481 0
 spin1final_state 41 -16.033 0
 spin1final_state 42 -16.033 0
 spin1final_state 43 -15.9755 0
 spin1final_state 44 -13.4523 0
 spin1final_state 45 -13.4523 0
 spin1final_state 46 -13.29 0
 spin1final_state 47 -13.29 0
 spin1final_state 48 -13.2511 0
 spin1final_state 49 -13.1288 0
 spin1final_state 50 -13.1288 0
 spin1final_state 51 -12.3607 0
 spin1final_state 52 -12.3255 0
 spin1final_state 53 -12.3255 0
 spin1final_state 54 -12.1764 0
 spin1final_state 55 -12.1431 0
 spin1final_state 56 -12.1431 0
 spin1final_state 57 -12.0801 0
 spin1final_state 58 -12.0801 0
 spin1final_state 59 -12.0506 0
 spin1final_state 60 -11.7305 0
 spin1final_state 61 -11.4352 0
 spin1final_state 62 -11.4352 0
 spin1final_state 63 -11.3813 0
 spin1final_state 64 -11.3706 0
 spin1final_state 65 -11.3706 0
 spin1final_state 66 -11.3506 0
 spin1final_state 67 -11.3506 0
 spin1final_state 68 -11.3413 0
 spin1final_state 69 -11.3291 0
 spin1final_state 70 -11.3291 0
 spin1final_state 71 -11.2943 0
 spin1final_state 72 -11.1025 0
 spin1final_state 73 -11.1025 0
 spin1final_state 74 -8.75384 0
 spin1final_state 75 -8.75383 0
 spin1final_state 76 -8.62534 0
 spin1final_state 77 -8.62533 0
 spin1final_state 78 -8.46279 0
 spin1final_state 79 -8.46278 0
 spin1final_state 80 -7.21398 0
 spin1final_state 81 -7.21397 0
 spin1final_state 82 -7.05947 0
 spin1final_state 83 -7.05947 0
 spin1final_state 84 -6.93478 0
 spin1final_state 85 -6.93477 0
 spin1final_state 86 -5.79248 0
 spin1final_state 87 -5.66096 0
 spin1final_state 88 -5.66094 0
 spin1final_state 89 -5.63154 0
 spin1final_state 90 -5.39884 0
 spin1final_state 91 -5.39883 0
 spin1final_state 92 -5.26804 0
 spin1final_state 93 -4.6895 0
 spin1final_state 94 -4.55005 0
 spin1final_state 95 -4.55004 0
 spin1final_state 96 -4.54032 0
 spin1final_state 97 -4.49421 0
 spin1final_state 98 -4.49169 0
 spin1final_state 99 -4.49169 0
 spin1final_state 100 -4.46772 0
 spin1final_state 101 -4.46772 0
 spin1final_state 102 -4.41749 0
 spin1final_state 103 -4.41748 0
 spin1final_state 104 -4.39389 0
 spin1final_state 105 -4.04051 0
 spin1final_state 106 -3.97354 0
 spin1final_state 107 -3.97353 0
 spin1final_state 108 -3.83988 0
 spin1final_state 109 -3.83987 0
 spin1final_state 110 -3.77333 0
 spin1final_state 111 -3.67506 0
 spin1final_state 112 -3.67504 0
 spin1final_state 113 -3.27379 0
 spin1final_state 114 -3.25394 0
 spin1final_state 115 -3.23207 0
 spin1final_state 116 -3.23205 0
 spin1final_state 117 -3.22098 0
 spin1final_state 118 -3.22098 0
 spin1final_state 119 -3.18338 0
 spin1final_state 120 -3.18337 0
 spin1final_state 121 -3.14798 0
 spin1final_state 122 -3.14798 0
 spin1final_state 123 -3.13293 0
 spin1final_state 124 -3.13195 0
 spin1final_state 125 -3.13193 0
 spin1final_state 126 -3.12449 0
 spin1final_state 127 -3.12448 0
 spin1final_state 128 -3.11882 0
 spin1final_state 129 -3.11881 0
 spin1final_state 130 -3.11788 0
 spin1final_state 131 -3.10454 0
 spin1final_state 132 -3.07377 0
 spin1final_state 133 -2.80887 0
 spin1final_state 134 -2.80887 0
 spin1final_state 135 -2.30864 0
 spin1final_state 136 -2.28894 0
 spin1final_state 137 -2.28892 0
 spin1final_state 138 -2.24449 0
 spin1final_state 139 -2.24448 0
 spin1final_state 140 -2.22238 0
 spin1final_state 141 -2.21847 0
 spin1final_state 142 -2.21442 0
 spin1final_state 143 -1.87318 0
 spin1final_state 144 -1.87317 0
 spin1final_state 145 -1.17046 0
 spin1final_state 146 -1.1659 0
 spin1final_state 147 -1.06409 0
 spin1final_state 148 -1.05875 0
 spin1final_state 149 -1.05074 0
 spin1final_state 150 -1.04203 0
 spin1final_state 151 -1.04202 0
 spin1final_state 152 -1.02967 0
 spin1final_state 153 -1.02966 0
 spin1final_state 154 -0.965455 0
 spin1final_state 155 -0.965447 0
 spin1final_state 156 -0.928893 0
 spin1final_state 157 -0.914719 0
 spin1final_state 158 -0.914679 0
 spin1final_state 159 -0.743462 0
 spin1final_state 160 -0.743423 0
 spin1final_state 161 -0.571604 0
 spin1final_state 162 -0.571595 0
 spin1final_state 163 -0.524883 0
 spin1final_state 164 -0.520877 0
 spin1final_state 165 -0.505713 0
 spin1final_state 166 -0.505634 0
 spin1final_state 167 -0.470721 0
 spin1final_state 168 -0.470638 0
 spin1final_state 169 -0.455821 0
 spin1final_state 170 -0.381134 0
 spin1final_state 171 -0.367634 0
 spin1final_state 172 -0.367505 0
 spin1final_state 173 -0.0106086 0
 spin1final_state 174 -0.00951217 0
 spin1final_state 175 -0.00948975 0
 spin1final_state 176 0.00164791 0
 spin1final_state 177 0.00166939 0
 spin1final_state 178 0.0123371 0
 spin1final_state 179 0.646731 0
 spin1final_state 180 0.646732 0
 spin1final_state 181 1.28843 0
 spin1final_state 182 2.0333 0
 spin1final_state 183 2.03335 0
 spin1final_state 184 2.82842 0
 spin1final_state 185 2.84291 0
 spin1final_state 186 2.84293 0
 spin1final_state 187 2.87345 0
 spin1final_state 188 2.87347 0
 spin1final_state 189 2.89068 0
 spin1final_state 190 3.22551 0
 spin1final_state 191 3.22622 0
 spin1final_state 192 3.22623 0
 spin1final_state 193 3.22723 0
 spin1final_state 194 3.22725 0
 spin1final_state 195 3.22796 0
 spin1final_state 196 3.43208 0
 spin1final_state 197 3.4407 0
 spin1final_state 198 3.79913 0
 spin1final_state 199 3.7992 0
 spin1final_state 200 3.80164 0
 spin1final_state 201 3.8048 0
 spin1final_state 202 3.81458 0
 spin1final_state 203 4.08239 0
 spin1final_state 204 4.11879 0
 spin1final_state 205 4.11882 0
 spin1final_state 206 4.16619 0
 spin1final_state 207 4.16619 0
 spin1final_state 208 4.20341 0
 spin1final_state 209 4.20344 0
 spin1final_state 210 4.25098 0
 spin1final_state 211 4.27513 0
 spin1final_state 212 4.27523 0
 spin1final_state 213 4.69418 0
 spin1final_state 214 4.69445 0
 spin1final_state 215 4.80535 0
 spin1final_state 216 4.83553 0
 spin1final_state 217 4.83558 0

 k-points3(101): 0.195122 0.112654 0
 spin1final_state 1 -60.2098 0
 spin1final_state 2 -60.1918 0
 spin1final_state 3 -60.1907 0
 spin1final_state 4 -60.1907 0
 spin1final_state 5 -60.1888 0
 spin1final_state 6 -60.1887 0
 spin1final_state 7 -60.1879 0
 spin1final_state 8 -60.1806 0
 spin1final_state 9 -60.1805 0
 spin1final_state 10 -34.4335 0
 spin1final_state 11 -34.424 0
 spin1final_state 12 -34.4239 0
 spin1final_state 13 -34.4216 0
 spin1final_state 14 -34.4216 0
 spin1final_state 15 -34.4036 0
 spin1final_state 16 -34.4035 0
 spin1final_state 17 -34.3926 0
 spin1final_state 18 -34.37 0
 spin1final_state 19 -34.37 0
 spin1final_state 20 -34.2669 0
 spin1final_state 21 -34.2513 0
 spin1final_state 22 -34.2502 0
 spin1final_state 23 -34.2501 0
 spin1final_state 24 -34.2453 0
 spin1final_state 25 -34.2453 0
 spin1final_state 26 -34.2417 0
 spin1final_state 27 -34.2273 0
 spin1final_state 28 -34.2248 0
 spin1final_state 29 -34.2248 0
 spin1final_state 30 -34.2205 0
 spin1final_state 31 -34.2204 0
 spin1final_state 32 -34.2186 0
 spin1final_state 33 -34.2008 0
 spin1final_state 34 -34.2007 0
 spin1final_state 35 -34.1989 0
 spin1final_state 36 -34.1973 0
 spin1final_state 37 -17.5341 0
 spin1final_state 38 -16.3142 0
 spin1final_state 39 -16.1989 0
 spin1final_state 40 -16.1989 0
 spin1final_state 41 -15.9686 0
 spin1final_state 42 -15.9686 0
 spin1final_state 43 -15.8537 0
 spin1final_state 44 -13.609 0
 spin1final_state 45 -13.609 0
 spin1final_state 46 -13.2836 0
 spin1final_state 47 -13.2836 0
 spin1final_state 48 -13.244 0
 spin1final_state 49 -12.9625 0
 spin1final_state 50 -12.9625 0
 spin1final_state 51 -12.477 0
 spin1final_state 52 -12.3547 0
 spin1final_state 53 -12.3547 0
 spin1final_state 54 -12.2418 0
 spin1final_state 55 -12.1718 0
 spin1final_state 56 -12.1718 0
 spin1final_state 57 -12.0464 0
 spin1final_state 58 -12.0464 0
 spin1final_state 59 -11.9913 0
 spin1final_state 60 -11.7282 0
 spin1final_state 61 -11.4401 0
 spin1final_state 62 -11.4401 0
 spin1final_state 63 -11.4022 0
 spin1final_state 64 -11.3795 0
 spin1final_state 65 -11.3795 0
 spin1final_state 66 -11.3396 0
 spin1final_state 67 -11.3396 0
 spin1final_state 68 -11.3225 0
 spin1final_state 69 -11.2882 0
 spin1final_state 70 -11.2882 0
 spin1final_state 71 -11.1673 0
 spin1final_state 72 -11.1048 0
 spin1final_state 73 -11.1048 0
 spin1final_state 74 -8.91148 0
 spin1final_state 75 -8.91147 0
 spin1final_state 76 -8.68509 0
 spin1final_state 77 -8.68509 0
 spin1final_state 78 -8.32877 0
 spin1final_state 79 -8.32876 0
 spin1final_state 80 -7.33287 0
 spin1final_state 81 -7.33286 0
 spin1final_state 82 -6.99803 0
 spin1final_state 83 -6.99803 0
 spin1final_state 84 -6.77614 0
 spin1final_state 85 -6.77613 0
 spin1final_state 86 -6.05628 0
 spin1final_state 87 -5.79239 0
 spin1final_state 88 -5.79237 0
 spin1final_state 89 -5.62309 0
 spin1final_state 90 -5.26924 0
 spin1final_state 91 -5.26923 0
 spin1final_state 92 -5.00827 0
 spin1final_state 93 -4.68147 0
 spin1final_state 94 -4.57213 0
 spin1final_state 95 -4.57212 0
 spin1final_state 96 -4.54371 0
 spin1final_state 97 -4.53328 0
 spin1final_state 98 -4.48871 0
 spin1final_state 99 -4.48871 0
 spin1final_state 100 -4.48044 0
 spin1final_state 101 -4.48044 0
 spin1final_state 102 -4.38948 0
 spin1final_state 103 -4.38947 0
 spin1final_state 104 -4.34702 0
 spin1final_state 105 -4.16574 0
 spin1final_state 106 -4.03235 0
 spin1final_state 107 -4.03235 0
 spin1final_state 108 -3.76521 0
 spin1final_state 109 -3.76519 0
 spin1final_state 110 -3.73323 0
 spin1final_state 111 -3.73322 0
 spin1final_state 112 -3.63302 0
 spin1final_state 113 -3.37015 0
 spin1final_state 114 -3.32096 0
 spin1final_state 115 -3.30351 0
 spin1final_state 116 -3.30349 0
 spin1final_state 117 -3.2638 0
 spin1final_state 118 -3.2638 0
 spin1final_state 119 -3.14274 0
 spin1final_state 120 -3.13674 0
 spin1final_state 121 -3.13674 0
 spin1final_state 122 -3.13038 0
 spin1final_state 123 -3.13037 0
 spin1final_state 124 -3.11742 0
 spin1final_state 125 -3.1142 0
 spin1final_state 126 -3.11419 0
 spin1final_state 127 -3.11145 0
 spin1final_state 128 -3.11145 0
 spin1final_state 129 -3.10288 0
 spin1final_state 130 -3.10287 0
 spin1final_state 131 -3.02588 0
 spin1final_state 132 -2.97064 0
 spin1final_state 133 -2.78376 0
 spin1final_state 134 -2.78376 0
 spin1final_state 135 -2.34903 0
 spin1final_state 136 -2.31393 0
 spin1final_state 137 -2.31391 0
 spin1final_state 138 -2.2384 0
 spin1final_state 139 -2.22889 0
 spin1final_state 140 -2.22888 0
 spin1final_state 141 -2.20669 0
 spin1final_state 142 -2.169 0
 spin1final_state 143 -1.88994 0
 spin1final_state 144 -1.88993 0
 spin1final_state 145 -1.19983 0
 spin1final_state 146 -1.18157 0
 spin1final_state 147 -1.1271 0
 spin1final_state 148 -1.11086 0
 spin1final_state 149 -1.09456 0
 spin1final_state 150 -1.09455 0
 spin1final_state 151 -1.07445 0
 spin1final_state 152 -1.07444 0
 spin1final_state 153 -1.06251 0
 spin1final_state 154 -1.01505 0
 spin1final_state 155 -1.01502 0
 spin1final_state 156 -0.950751 0
 spin1final_state 157 -0.950743 0
 spin1final_state 158 -0.868474 0
 spin1final_state 159 -0.739565 0
 spin1final_state 160 -0.739524 0
 spin1final_state 161 -0.5563 0
 spin1final_state 162 -0.51493 0
 spin1final_state 163 -0.514854 0
 spin1final_state 164 -0.482363 0
 spin1final_state 165 -0.443492 0
 spin1final_state 166 -0.443383 0
 spin1final_state 167 -0.433262 0
 spin1final_state 168 -0.411517 0
 spin1final_state 169 -0.397107 0
 spin1final_state 170 -0.397059 0
 spin1final_state 171 -0.372423 0
 spin1final_state 172 -0.372261 0
 spin1final_state 173 -0.00925174 0
 spin1final_state 174 -0.00922972 0
 spin1final_state 175 -0.00312761 0
 spin1final_state 176 0.0115481 0
 spin1final_state 177 0.0115679 0
 spin1final_state 178 0.0433744 0
 spin1final_state 179 0.627448 0
 spin1final_state 180 0.62745 0
 spin1final_state 181 1.28085 0
 spin1final_state 182 2.05962 0
 spin1final_state 183 2.05966 0
 spin1final_state 184 2.80187 0
 spin1final_state 185 2.8299 0
 spin1final_state 186 2.82992 0
 spin1final_state 187 2.88753 0
 spin1final_state 188 2.88755 0
 spin1final_state 189 2.9263 0
 spin1final_state 190 3.22382 0
 spin1final_state 191 3.22567 0
 spin1final_state 192 3.22567 0
 spin1final_state 193 3.22618 0
 spin1final_state 194 3.22621 0
 spin1final_state 195 3.22805 0
 spin1final_state 196 3.42075 0
 spin1final_state 197 3.45486 0
 spin1final_state 198 3.78369 0
 spin1final_state 199 3.79595 0
 spin1final_state 200 3.81195 0
 spin1final_state 201 3.81202 0
 spin1final_state 202 3.87258 0
 spin1final_state 203 3.99493 0
 spin1final_state 204 4.05601 0
 spin1final_state 205 4.05604 0
 spin1final_state 206 4.14432 0
 spin1final_state 207 4.14432 0
 spin1final_state 208 4.22595 0
 spin1final_state 209 4.22597 0
 spin1final_state 210 4.27594 0
 spin1final_state 211 4.27603 0
 spin1final_state 212 4.32974 0
 spin1final_state 213 4.49604 0
 spin1final_state 214 4.4962 0
 spin1final_state 215 4.75244 0
 spin1final_state 216 4.82725 0
 spin1final_state 217 4.82731 0

 k-points4(101): 0.191057 0.110307 0
 spin1final_state 1 -60.2095 0
 spin1final_state 2 -60.1929 0
 spin1final_state 3 -60.1912 0
 spin1final_state 4 -60.1911 0
 spin1final_state 5 -60.1883 0
 spin1final_state 6 -60.1882 0
 spin1final_state 7 -60.1871 0
 spin1final_state 8 -60.1807 0
 spin1final_state 9 -60.1806 0
 spin1final_state 10 -34.4423 0
 spin1final_state 11 -34.4285 0
 spin1final_state 12 -34.4284 0
 spin1final_state 13 -34.4249 0
 spin1final_state 14 -34.4249 0
 spin1final_state 15 -34.3982 0
 spin1final_state 16 -34.3982 0
 spin1final_state 17 -34.3812 0
 spin1final_state 18 -34.3653 0
 spin1final_state 19 -34.3653 0
 spin1final_state 20 -34.2664 0
 spin1final_state 21 -34.2534 0
 spin1final_state 22 -34.2526 0
 spin1final_state 23 -34.2526 0
 spin1final_state 24 -34.2452 0
 spin1final_state 25 -34.2452 0
 spin1final_state 26 -34.2391 0
 spin1final_state 27 -34.2296 0
 spin1final_state 28 -34.2258 0
 spin1final_state 29 -34.2257 0
 spin1final_state 30 -34.2193 0
 spin1final_state 31 -34.2193 0
 spin1final_state 32 -34.2168 0
 spin1final_state 33 -34.2015 0
 spin1final_state 34 -34.201 0
 spin1final_state 35 -34.201 0
 spin1final_state 36 -34.1979 0
 spin1final_state 37 -17.5224 0
 spin1final_state 38 -16.4182 0
 spin1final_state 39 -16.245 0
 spin1final_state 40 -16.245 0
 spin1final_state 41 -15.8997 0
 spin1final_state 42 -15.8997 0
 spin1final_state 43 -15.7276 0
 spin1final_state 44 -13.7622 0
 spin1final_state 45 -13.7622 0
 spin1final_state 46 -13.2729 0
 spin1final_state 47 -13.2729 0
 spin1final_state 48 -13.2321 0
 spin1final_state 49 -12.7934 0
 spin1final_state 50 -12.7934 0
 spin1final_state 51 -12.6315 0
 spin1final_state 52 -12.3986 0
 spin1final_state 53 -12.3986 0
 spin1final_state 54 -12.3082 0
 spin1final_state 55 -12.1985 0
 spin1final_state 56 -12.1985 0
 spin1final_state 57 -12.0114 0
 spin1final_state 58 -12.0114 0
 spin1final_state 59 -11.9351 0
 spin1final_state 60 -11.7243 0
 spin1final_state 61 -11.4482 0
 spin1final_state 62 -11.4482 0
 spin1final_state 63 -11.4235 0
 spin1final_state 64 -11.3877 0
 spin1final_state 65 -11.3877 0
 spin1final_state 66 -11.328 0
 spin1final_state 67 -11.328 0
 spin1final_state 68 -11.3048 0
 spin1final_state 69 -11.2248 0
 spin1final_state 70 -11.2248 0
 spin1final_state 71 -11.1085 0
 spin1final_state 72 -11.1085 0
 spin1final_state 73 -10.9952 0
 spin1final_state 74 -9.07669 0
 spin1final_state 75 -9.07667 0
 spin1final_state 76 -8.77558 0
 spin1final_state 77 -8.77557 0
 spin1final_state 78 -8.20125 0
 spin1final_state 79 -8.20124 0
 spin1final_state 80 -7.43774 0
 spin1final_state 81 -7.43773 0
[...]
 spin1final_state 204 3.55114 0
 spin1final_state 205 3.5514 0
 spin1final_state 206 3.62567 0
 spin1final_state 207 3.79952 0
 spin1final_state 208 3.7996 0
 spin1final_state 209 3.98105 0
 spin1final_state 210 4.06372 0
 spin1final_state 211 4.38732 0
 spin1final_state 212 4.38737 0
 spin1final_state 213 4.58094 0
 spin1final_state 214 4.69198 0
 spin1final_state 215 4.69207 0
 spin1final_state 216 5.06087 0
 spin1final_state 217 5.06089 0

 k-points100(101): 0.132791 0.230001 0
 spin1final_state 1 -60.2025 0
 spin1final_state 2 -60.2007 0
 spin1final_state 3 -60.2006 0
 spin1final_state 4 -60.1866 0
 spin1final_state 5 -60.1866 0
 spin1final_state 6 -60.1852 0
 spin1final_state 7 -60.1828 0
 spin1final_state 8 -60.1827 0
 spin1final_state 9 -60.1824 0
 spin1final_state 10 -34.4751 0
 spin1final_state 11 -34.4751 0
 spin1final_state 12 -34.4704 0
 spin1final_state 13 -34.4254 0
 spin1final_state 14 -34.4177 0
 spin1final_state 15 -34.4176 0
 spin1final_state 16 -34.3005 0
 spin1final_state 17 -34.2954 0
 spin1final_state 18 -34.2953 0
 spin1final_state 19 -34.2909 0
 spin1final_state 20 -34.2892 0
 spin1final_state 21 -34.2892 0
 spin1final_state 22 -34.281 0
 spin1final_state 23 -34.281 0
 spin1final_state 24 -34.2765 0
 spin1final_state 25 -34.2508 0
 spin1final_state 26 -34.2467 0
 spin1final_state 27 -34.2467 0
 spin1final_state 28 -34.2233 0
 spin1final_state 29 -34.2233 0
 spin1final_state 30 -34.2176 0
 spin1final_state 31 -34.2152 0
 spin1final_state 32 -34.2151 0
 spin1final_state 33 -34.2119 0
 spin1final_state 34 -34.2065 0
 spin1final_state 35 -34.2064 0
 spin1final_state 36 -34.2056 0
 spin1final_state 37 -17.1321 0
 spin1final_state 38 -17.0159 0
 spin1final_state 39 -17.0157 0
 spin1final_state 40 -15.6886 0
 spin1final_state 41 -15.6886 0
 spin1final_state 42 -15.4602 0
 spin1final_state 43 -14.3864 0
 spin1final_state 44 -14.3862 0
 spin1final_state 45 -14.164 0
 spin1final_state 46 -14.1638 0
 spin1final_state 47 -14.0527 0
 spin1final_state 48 -14.0527 0
 spin1final_state 49 -12.8605 0
 spin1final_state 50 -12.7588 0
 spin1final_state 51 -12.7588 0
 spin1final_state 52 -11.9624 0
 spin1final_state 53 -11.9079 0
 spin1final_state 54 -11.9079 0
 spin1final_state 55 -11.8899 0
 spin1final_state 56 -11.8899 0
 spin1final_state 57 -11.792 0
 spin1final_state 58 -11.6139 0
 spin1final_state 59 -11.6139 0
 spin1final_state 60 -11.6027 0
 spin1final_state 61 -11.5887 0
 spin1final_state 62 -11.5693 0
 spin1final_state 63 -11.5692 0
 spin1final_state 64 -11.2762 0
 spin1final_state 65 -11.2761 0
 spin1final_state 66 -11.241 0
 spin1final_state 67 -11.1953 0
 spin1final_state 68 -11.1952 0
 spin1final_state 69 -11.1822 0
 spin1final_state 70 -10.9971 0
 spin1final_state 71 -10.8604 0
 spin1final_state 72 -10.8604 0
 spin1final_state 73 -10.8006 0
 spin1final_state 74 -10.5159 0
 spin1final_state 75 -8.98091 0
 spin1final_state 76 -8.98091 0
 spin1final_state 77 -8.69737 0
 spin1final_state 78 -8.69735 0
 spin1final_state 79 -8.67863 0
 spin1final_state 80 -8.48295 0
 spin1final_state 81 -8.48272 0
 spin1final_state 82 -6.46716 0
 spin1final_state 83 -6.4671 0
 spin1final_state 84 -6.11485 0
 spin1final_state 85 -6.10023 0
 spin1final_state 86 -5.75649 0
 spin1final_state 87 -5.75648 0
 spin1final_state 88 -5.14041 0
 spin1final_state 89 -5.00143 0
 spin1final_state 90 -5.00124 0
 spin1final_state 91 -4.86108 0
 spin1final_state 92 -4.86083 0
 spin1final_state 93 -4.74914 0
 spin1final_state 94 -4.68114 0
 spin1final_state 95 -4.68113 0
 spin1final_state 96 -4.67737 0
 spin1final_state 97 -4.67737 0
 spin1final_state 98 -4.59767 0
 spin1final_state 99 -4.56121 0
 spin1final_state 100 -4.56117 0
 spin1final_state 101 -4.42246 0
 spin1final_state 102 -4.42246 0
 spin1final_state 103 -4.30202 0
 spin1final_state 104 -4.29516 0
 spin1final_state 105 -4.29515 0
 spin1final_state 106 -4.2915 0
 spin1final_state 107 -4.23023 0
 spin1final_state 108 -4.23021 0
 spin1final_state 109 -3.99202 0
 spin1final_state 110 -3.89168 0
 spin1final_state 111 -3.89166 0
 spin1final_state 112 -3.82667 0
 spin1final_state 113 -3.65204 0
 spin1final_state 114 -3.65202 0
 spin1final_state 115 -3.43429 0
 spin1final_state 116 -3.43428 0
 spin1final_state 117 -3.182 0
 spin1final_state 118 -3.18198 0
 spin1final_state 119 -3.17077 0
 spin1final_state 120 -3.16587 0
 spin1final_state 121 -3.0132 0
 spin1final_state 122 -3.01319 0
 spin1final_state 123 -2.96231 0
 spin1final_state 124 -2.96228 0
 spin1final_state 125 -2.92817 0
 spin1final_state 126 -2.92812 0
 spin1final_state 127 -2.90171 0
 spin1final_state 128 -2.88529 0
 spin1final_state 129 -2.61714 0
 spin1final_state 130 -2.41522 0
 spin1final_state 131 -2.4152 0
 spin1final_state 132 -2.34796 0
 spin1final_state 133 -2.34329 0
 spin1final_state 134 -2.34328 0
 spin1final_state 135 -2.3078 0
 spin1final_state 136 -2.25334 0
 spin1final_state 137 -2.25321 0
 spin1final_state 138 -2.20968 0
 spin1final_state 139 -2.20966 0
 spin1final_state 140 -2.0562 0
 spin1final_state 141 -2.03112 0
 spin1final_state 142 -1.98387 0
 spin1final_state 143 -1.98365 0
 spin1final_state 144 -1.88139 0
 spin1final_state 145 -1.88137 0
 spin1final_state 146 -1.86821 0
 spin1final_state 147 -1.80699 0
 spin1final_state 148 -1.74233 0
 spin1final_state 149 -1.74087 0
 spin1final_state 150 -1.72756 0
 spin1final_state 151 -1.7109 0
 spin1final_state 152 -1.71088 0
 spin1final_state 153 -1.71074 0
 spin1final_state 154 -1.71073 0
 spin1final_state 155 -1.63656 0
 spin1final_state 156 -1.63654 0
 spin1final_state 157 -1.24912 0
 spin1final_state 158 -1.01466 0
 spin1final_state 159 -1.01464 0
 spin1final_state 160 -0.727367 0
 spin1final_state 161 -0.711533 0
 spin1final_state 162 -0.711499 0
 spin1final_state 163 -0.43874 0
 spin1final_state 164 -0.348259 0
 spin1final_state 165 -0.347801 0
 spin1final_state 166 -0.00145672 0
 spin1final_state 167 -0.00116491 0
 spin1final_state 168 0.0101874 0
 spin1final_state 169 0.020126 0
 spin1final_state 170 0.020138 0
 spin1final_state 171 0.0475395 0
 spin1final_state 172 0.143868 0
 spin1final_state 173 0.267206 0
 spin1final_state 174 0.267756 0
 spin1final_state 175 0.310581 0
 spin1final_state 176 0.310603 0
 spin1final_state 177 0.330151 0
 spin1final_state 178 0.616345 0
 spin1final_state 179 0.616367 0
 spin1final_state 180 0.764576 0
 spin1final_state 181 1.83047 0
 spin1final_state 182 2.21567 0
 spin1final_state 183 2.64019 0
 spin1final_state 184 2.68711 0
 spin1final_state 185 2.68713 0
 spin1final_state 186 2.90124 0
 spin1final_state 187 2.97249 0
 spin1final_state 188 2.97254 0
 spin1final_state 189 3.14243 0
 spin1final_state 190 3.14244 0
 spin1final_state 191 3.16473 0
 spin1final_state 192 3.16478 0
 spin1final_state 193 3.17267 0
 spin1final_state 194 3.19473 0
 spin1final_state 195 3.19475 0
 spin1final_state 196 3.24316 0
 spin1final_state 197 3.26069 0
 spin1final_state 198 3.32288 0
 spin1final_state 199 3.32291 0
 spin1final_state 200 3.35625 0
 spin1final_state 201 3.35632 0
 spin1final_state 202 3.4051 0
 spin1final_state 203 3.42429 0
 spin1final_state 204 3.52218 0
 spin1final_state 205 3.52242 0
 spin1final_state 206 3.58192 0
 spin1final_state 207 3.81369 0
 spin1final_state 208 3.8138 0
 spin1final_state 209 3.91337 0
 spin1final_state 210 4.17058 0
 spin1final_state 211 4.33473 0
 spin1final_state 212 4.33478 0
 spin1final_state 213 4.63914 0
 spin1final_state 214 4.7018 0
 spin1final_state 215 4.70188 0
 spin1final_state 216 5.0471 0
 spin1final_state 217 5.04711 0

 k-points101(101): 0.135501 0.234695 0
 spin1final_state 1 -60.2014 0
 spin1final_state 2 -60.2012 0
 spin1final_state 3 -60.2012 0
 spin1final_state 4 -60.1863 0
 spin1final_state 5 -60.1861 0
 spin1final_state 6 -60.186 0
 spin1final_state 7 -60.1827 0
 spin1final_state 8 -60.1825 0
 spin1final_state 9 -60.1825 0
 spin1final_state 10 -34.474 0
 spin1final_state 11 -34.474 0
 spin1final_state 12 -34.4739 0
 spin1final_state 13 -34.4202 0
 spin1final_state 14 -34.4202 0
 spin1final_state 15 -34.4201 0
 spin1final_state 16 -34.2932 0
 spin1final_state 17 -34.2932 0
 spin1final_state 18 -34.2931 0
 spin1final_state 19 -34.2887 0
 spin1final_state 20 -34.2887 0
 spin1final_state 21 -34.2886 0
 spin1final_state 22 -34.2843 0
 spin1final_state 23 -34.2842 0
 spin1final_state 24 -34.2841 0
 spin1final_state 25 -34.2483 0
 spin1final_state 26 -34.2481 0
 spin1final_state 27 -34.2481 0
 spin1final_state 28 -34.2214 0
 spin1final_state 29 -34.2214 0
 spin1final_state 30 -34.2213 0
 spin1final_state 31 -34.2141 0
 spin1final_state 32 -34.214 0
 spin1final_state 33 -34.2139 0
 spin1final_state 34 -34.2062 0
 spin1final_state 35 -34.2061 0
 spin1final_state 36 -34.206 0
 spin1final_state 37 -17.0579 0
 spin1final_state 38 -17.0576 0
 spin1final_state 39 -17.0575 0
 spin1final_state 40 -15.6154 0
 spin1final_state 41 -15.6154 0
 spin1final_state 42 -15.6154 0
 spin1final_state 43 -14.2038 0
 spin1final_state 44 -14.2037 0
 spin1final_state 45 -14.2037 0
 spin1final_state 46 -14.2035 0
 spin1final_state 47 -14.2035 0
 spin1final_state 48 -14.2034 0
 spin1final_state 49 -12.7949 0
 spin1final_state 50 -12.7949 0
 spin1final_state 51 -12.7948 0
 spin1final_state 52 -11.8984 0
 spin1final_state 53 -11.8984 0
 spin1final_state 54 -11.8983 0
 spin1final_state 55 -11.8568 0
 spin1final_state 56 -11.8567 0
 spin1final_state 57 -11.8567 0
 spin1final_state 58 -11.6037 0
 spin1final_state 59 -11.6037 0
 spin1final_state 60 -11.6037 0
 spin1final_state 61 -11.5812 0
 spin1final_state 62 -11.5811 0
 spin1final_state 63 -11.5811 0
 spin1final_state 64 -11.2643 0
 spin1final_state 65 -11.2642 0
 spin1final_state 66 -11.2642 0
 spin1final_state 67 -11.1904 0
 spin1final_state 68 -11.1904 0
 spin1final_state 69 -11.1904 0
 spin1final_state 70 -10.9378 0
 spin1final_state 71 -10.9378 0
 spin1final_state 72 -10.9378 0
 spin1final_state 73 -10.6509 0
 spin1final_state 74 -10.6509 0
 spin1final_state 75 -8.72204 0
 spin1final_state 76 -8.72202 0
 spin1final_state 77 -8.72201 0
 spin1final_state 78 -8.72181 0
 spin1final_state 79 -8.7218 0
 spin1final_state 80 -8.72179 0
 spin1final_state 81 -8.69962 0
 spin1final_state 82 -6.34994 0
 spin1final_state 83 -6.34988 0
 spin1final_state 84 -6.34985 0
 spin1final_state 85 -5.86108 0
 spin1final_state 86 -5.86108 0
 spin1final_state 87 -5.86106 0
 spin1final_state 88 -5.05154 0
 spin1final_state 89 -5.05128 0
 spin1final_state 90 -5.05122 0
 spin1final_state 91 -4.6968 0
 spin1final_state 92 -4.69677 0
 spin1final_state 93 -4.69676 0
 spin1final_state 94 -4.69654 0
 spin1final_state 95 -4.69653 0
 spin1final_state 96 -4.6965 0
 spin1final_state 97 -4.65676 0
 spin1final_state 98 -4.65674 0
 spin1final_state 99 -4.65672 0
 spin1final_state 100 -4.53921 0
 spin1final_state 101 -4.53919 0
 spin1final_state 102 -4.53919 0
 spin1final_state 103 -4.29354 0
 spin1final_state 104 -4.29353 0
 spin1final_state 105 -4.29353 0
 spin1final_state 106 -4.25332 0
 spin1final_state 107 -4.25326 0
 spin1final_state 108 -4.25323 0
 spin1final_state 109 -3.92707 0
 spin1final_state 110 -3.92702 0
 spin1final_state 111 -3.92699 0
 spin1final_state 112 -3.71238 0
 spin1final_state 113 -3.71232 0
 spin1final_state 114 -3.71228 0
 spin1final_state 115 -3.34964 0
 spin1final_state 116 -3.34964 0
 spin1final_state 117 -3.34963 0
 spin1final_state 118 -3.17851 0
 spin1final_state 119 -3.17846 0
 spin1final_state 120 -3.17845 0
 spin1final_state 121 -2.97689 0
 spin1final_state 122 -2.97688 0
 spin1final_state 123 -2.97686 0
 spin1final_state 124 -2.91006 0
 spin1final_state 125 -2.91003 0
 spin1final_state 126 -2.91 0
 spin1final_state 127 -2.83751 0
 spin1final_state 128 -2.83747 0
 spin1final_state 129 -2.83745 0
 spin1final_state 130 -2.39376 0
 spin1final_state 131 -2.39374 0
 spin1final_state 132 -2.39372 0
 spin1final_state 133 -2.33311 0
 spin1final_state 134 -2.33308 0
 spin1final_state 135 -2.33307 0
 spin1final_state 136 -2.17824 0
 spin1final_state 137 -2.17818 0
 spin1final_state 138 -2.17796 0
 spin1final_state 139 -2.1522 0
 spin1final_state 140 -2.15215 0
 spin1final_state 141 -2.15214 0
 spin1final_state 142 -1.83484 0
 spin1final_state 143 -1.83479 0
 spin1final_state 144 -1.83476 0
 spin1final_state 145 -1.78987 0
 spin1final_state 146 -1.78985 0
 spin1final_state 147 -1.78971 0
 spin1final_state 148 -1.78853 0
 spin1final_state 149 -1.78836 0
 spin1final_state 150 -1.78832 0
 spin1final_state 151 -1.76797 0
 spin1final_state 152 -1.76797 0
 spin1final_state 153 -1.76793 0
 spin1final_state 154 -1.74464 0
 spin1final_state 155 -1.74461 0
 spin1final_state 156 -1.74457 0
 spin1final_state 157 -1.08826 0
 spin1final_state 158 -1.08823 0
 spin1final_state 159 -1.0882 0
 spin1final_state 160 -0.717574 0
 spin1final_state 161 -0.717521 0
 spin1final_state 162 -0.717509 0
 spin1final_state 163 -0.375387 0
 spin1final_state 164 -0.375174 0
 spin1final_state 165 -0.374843 0
 spin1final_state 166 0.0113939 0
 spin1final_state 167 0.0115113 0
 spin1final_state 168 0.011741 0
 spin1final_state 169 0.022454 0
 spin1final_state 170 0.0224825 0
 spin1final_state 171 0.0225008 0
 spin1final_state 172 0.235634 0
 spin1final_state 173 0.236215 0
 spin1final_state 174 0.236441 0
 spin1final_state 175 0.319742 0
 spin1final_state 176 0.319777 0
 spin1final_state 177 0.319811 0
 spin1final_state 178 0.668665 0
 spin1final_state 179 0.668727 0
 spin1final_state 180 0.668748 0
 spin1final_state 181 2.02355 0
 spin1final_state 182 2.02357 0
 spin1final_state 183 2.67192 0
 spin1final_state 184 2.67194 0
 spin1final_state 185 2.67199 0
 spin1final_state 186 2.95858 0
 spin1final_state 187 2.95866 0
 spin1final_state 188 2.95868 0
 spin1final_state 189 3.16588 0
 spin1final_state 190 3.16595 0
 spin1final_state 191 3.16603 0
 spin1final_state 192 3.1756 0
 spin1final_state 193 3.17568 0
 spin1final_state 194 3.17574 0
 spin1final_state 195 3.20082 0
 spin1final_state 196 3.20089 0
 spin1final_state 197 3.20093 0
 spin1final_state 198 3.35578 0
 spin1final_state 199 3.35585 0
 spin1final_state 200 3.35588 0
 spin1final_state 201 3.37188 0
 spin1final_state 202 3.37191 0
 spin1final_state 203 3.37195 0
 spin1final_state 204 3.53044 0
 spin1final_state 205 3.53077 0
 spin1final_state 206 3.53087 0
 spin1final_state 207 3.84249 0
 spin1final_state 208 3.84259 0
 spin1final_state 209 3.84276 0
 spin1final_state 210 4.28017 0
 spin1final_state 211 4.28024 0
 spin1final_state 212 4.28025 0
 spin1final_state 213 4.69066 0
 spin1final_state 214 4.69071 0
 spin1final_state 215 4.69075 0
 spin1final_state 216 5.04368 0
 spin1final_state 217 5.04375 0



 --------------------------------------------
 !FINAL_ETOT_IS 0 eV
 --------------------------------------------






 >>>>>>>>>>>>>>>>>>>>>>>>>>>>>>>>>>>>>>>>>>>>>>>>>>>>>>>>>>>>>>>>>>>>>>
 |                                                                    |
 | Post-processing of data:                                           |
 | DOS (density of states) and bands will be output here.             |
 | If atomic orbitals are used, Mulliken charge analysis can be done. |
 | Also the .bxsf file containing fermi surface information can be    |
 | done here.                                                         |
 |                                                                    |
 <<<<<<<<<<<<<<<<<<<<<<<<<<<<<<<<<<<<<<<<<<<<<<<<<<<<<<<<<<<<<<<<<<<<<<





 Output bands in file: OUT.ABACUS/BANDS_1.dat




  |CLASS_NAME---------|NAME---------------|TIME(Sec)-----|CALLS----|AVG------|PER%-------
                                      total         103.45         5        21     1e+02%
                 Driver         driver_line         103.43         1     1e+02     1e+02%
               PW_Basis  setup_struc_factor        0.11807         1      0.12      0.11%
            ORB_control      read_orb_first        0.21421         1      0.21      0.21%
          LCAO_Orbitals       Read_Orbitals        0.21421         1      0.21      0.21%
            ORB_control      set_orb_tables         23.358         1        23        23%
         ORB_gen_tables          gen_tables         23.358         1        23        23%
          ORB_table_phi          init_Table         17.367         1        17        17%
          ORB_table_phi      cal_ST_Phi12_R         17.316       694     0.025        17%
         ORB_table_beta     init_Table_Beta         5.5237         1       5.5       5.3%
         ORB_table_beta       VNL_PhiBeta_R         5.5091       364     0.015       5.3%
              ppcell_vl           init_vloc        0.63673         1      0.64      0.62%
        ESolver_KS_LCAO    othercalculation         78.816         1        79        76%
        ESolver_KS_LCAO        beforesolver        0.57792         1      0.58      0.56%
        ESolver_KS_LCAO     set_matrix_grid        0.31345         1      0.31       0.3%
         Grid_Technique                init        0.26536         1      0.27      0.26%
              Potential            init_pot        0.49579         1       0.5      0.48%
              Potential  update_from_charge        0.49578         1       0.5      0.48%
               PW_Basis          recip2real        0.17785         6      0.03      0.17%
              Potential           cal_v_eff        0.45845         1      0.46      0.44%
               PW_Basis          real2recip        0.17344         6     0.029      0.17%
                  PotXC           cal_v_eff        0.38517         1      0.39      0.37%
          XC_Functional                v_xc        0.37562         1      0.38      0.36%
            HSolverLCAO               solve         76.066         1        76        74%
             HamiltLCAO            updateHk         8.5754       101     0.085       8.3%
           OperatorLCAO                init         8.5747       303     0.028       8.3%
                   Veff        contributeHk         5.5844       101     0.055       5.4%
         Gint_interface            cal_gint        0.25814         1      0.26      0.25%
         Gint_interface     cal_gint_vlocal        0.25814         1      0.26      0.25%
                 Gint_k        folding_vl_k         5.3257       101     0.053       5.1%
                 Gint_k              Distri         5.1341       101     0.051         5%
   Nonlocal<OperatorLCAO>        contributeHR         0.1277         1      0.13      0.12%
        LCAO_gen_fixedHbuild_Nonlocal_mu_new        0.12739         1      0.13      0.12%
           OperatorLCAO       folding_fixed         2.7356       101     0.027       2.6%
               LCAO_nnr      folding_fixedH         2.3092       101     0.023       2.2%
            HSolverLCAO     hamiltSolvePsiK         33.587       101      0.33        32%
              DiagoElpa          elpa_solve         33.189       101      0.33        32%
      Local_Orbital_wfc      wfc_2d_to_grid         33.901       101      0.34        33%
               WF_Local  write_lowf_complex         33.543       101      0.33        32%
 ----------------------------------------------------------------------------------------

 CLASS_NAME---------|NAME---------------|MEMORY(MB)--------
                                         3.209e+04
        ORB_table_phi               Jl(x)          142.9
        ORB_table_phi         Table_SR&TR          6.432
        Grid_Meshcell        index2normal          4.989
        Grid_Meshcell         index2ucell          4.989
    LocalOrbital_Coef          wfc_k_grid          2.957
    Local_Orbital_wfc                ctot          2.957
        allocate_pvpR        pvpR_reduced          2.764
  LocalOrbital_Charge      Density_Matrix          2.764
       ORB_table_beta            Table_NR          2.442
             PW_Basis           struc_fac          2.033
        init_meshball        meshball_pos          1.182
 ----------------------------------------------------------

 Start  Time  : Thu Nov 14 20:46:50 2024
 Finish Time  : Thu Nov 14 20:48:33 2024
 Total  Time  : 0 h 1 mins 43 secs 
