                                                                                     
                             WELCOME TO ABACUS v3.0                                  
                                                                                     
               'Atomic-orbital Based Ab-initio Computation at UStc'                  
                                                                                     
                     Website: http://abacus.ustc.edu.cn/                             
                                                                                     
    Version: Parallel, in development
    Processor Number is 16
    Start Time is Thu Nov 14 17:39:55 2024
                                                                                     
 ------------------------------------------------------------------------------------

 READING GENERAL INFORMATION
                           global_out_dir = OUT.ABACUS/
                           global_in_card = INPUT
                               pseudo_dir = 
                              orbital_dir = 
                                    DRANK = 1
                                    DSIZE = 16
                                   DCOLOR = 1
                                    GRANK = 1
                                    GSIZE = 1
 The esolver type has been set to : ksdft_lcao




 >>>>>>>>>>>>>>>>>>>>>>>>>>>>>>>>>>>>>>>>>>>>>>>>>>>>>>>>>>>>>>>>>>>>>>
 |                                                                    |
 | Reading atom information in unitcell:                              |
 | From the input file and the structure file we know the number of   |
 | different elments in this unitcell, then we list the detail        |
 | information for each element, especially the zeta and polar atomic |
 | orbital number for each element. The total atom number is counted. |
 | We calculate the nearest atom distance for each atom and show the  |
 | Cartesian and Direct coordinates for each atom. We list the file   |
 | address for atomic orbitals. The volume and the lattice vectors    |
 | in real and reciprocal space is also shown.                        |
 |                                                                    |
 <<<<<<<<<<<<<<<<<<<<<<<<<<<<<<<<<<<<<<<<<<<<<<<<<<<<<<<<<<<<<<<<<<<<<<




 READING UNITCELL INFORMATION
                                    ntype = 1
                 atom label for species 1 = C
                  lattice constant (Bohr) = 1.88973
              lattice constant (Angstrom) = 1

 READING ATOM TYPE 1
                               atom label = C
                      L=0, number of zeta = 2
                      L=1, number of zeta = 2
                      L=2, number of zeta = 1
             number of atom for this type = 49
                      start magnetization = FALSE
                      start magnetization = FALSE
                      start magnetization = FALSE
                      start magnetization = FALSE
                      start magnetization = FALSE
                      start magnetization = FALSE
                      start magnetization = FALSE
                      start magnetization = FALSE
                      start magnetization = FALSE
                      start magnetization = FALSE
                      start magnetization = FALSE
                      start magnetization = FALSE
                      start magnetization = FALSE
                      start magnetization = FALSE
                      start magnetization = FALSE
                      start magnetization = FALSE
                      start magnetization = FALSE
                      start magnetization = FALSE
                      start magnetization = FALSE
                      start magnetization = FALSE
                      start magnetization = FALSE
                      start magnetization = FALSE
                      start magnetization = FALSE
                      start magnetization = FALSE
                      start magnetization = FALSE
                      start magnetization = FALSE
                      start magnetization = FALSE
                      start magnetization = FALSE
                      start magnetization = FALSE
                      start magnetization = FALSE
                      start magnetization = FALSE
                      start magnetization = FALSE
                      start magnetization = FALSE
                      start magnetization = FALSE
                      start magnetization = FALSE
                      start magnetization = FALSE
                      start magnetization = FALSE
                      start magnetization = FALSE
                      start magnetization = FALSE
                      start magnetization = FALSE
                      start magnetization = FALSE
                      start magnetization = FALSE
                      start magnetization = FALSE
                      start magnetization = FALSE
                      start magnetization = FALSE
                      start magnetization = FALSE
                      start magnetization = FALSE
                      start magnetization = FALSE
                      start magnetization = FALSE

                        TOTAL ATOM NUMBER = 49

 DIRECT COORDINATES
         atom                   x                   y                   z                 mag                  vx                  vy                  vz
      taud_C1            0.133333            0.133333                 0.5                   0                   0                   0                   0
      taud_C2            0.333333            0.133333                 0.5                   0                   0                   0                   0
      taud_C3            0.533333            0.133333                 0.5                   0                   0                   0                   0
      taud_C4            0.733333            0.133333                 0.5                   0                   0                   0                   0
      taud_C5            0.933333            0.133333                 0.5                   0                   0                   0                   0
      taud_C6            0.133333            0.333333                 0.5                   0                   0                   0                   0
      taud_C7            0.333333            0.333333                 0.5                   0                   0                   0                   0
      taud_C8            0.533333            0.333333                 0.5                   0                   0                   0                   0
      taud_C9            0.733333            0.333333                 0.5                   0                   0                   0                   0
     taud_C10            0.133333            0.533333                 0.5                   0                   0                   0                   0
     taud_C11            0.333333            0.533333                 0.5                   0                   0                   0                   0
     taud_C12            0.533333            0.533333                 0.5                   0                   0                   0                   0
     taud_C13            0.733333            0.533333                 0.5                   0                   0                   0                   0
     taud_C14            0.933333            0.533333                 0.5                   0                   0                   0                   0
     taud_C15            0.133333            0.733333                 0.5                   0                   0                   0                   0
     taud_C16            0.333333            0.733333                 0.5                   0                   0                   0                   0
     taud_C17            0.533333            0.733333                 0.5                   0                   0                   0                   0
     taud_C18            0.733333            0.733333                 0.5                   0                   0                   0                   0
     taud_C19            0.933333            0.733333                 0.5                   0                   0                   0                   0
     taud_C20            0.133333            0.933333                 0.5                   0                   0                   0                   0
     taud_C21            0.333333            0.933333                 0.5                   0                   0                   0                   0
     taud_C22            0.533333            0.933333                 0.5                   0                   0                   0                   0
     taud_C23            0.733333            0.933333                 0.5                   0                   0                   0                   0
     taud_C24            0.933333            0.933333                 0.5                   0                   0                   0                   0
     taud_C25           0.0666667           0.0666667                 0.5                   0                   0                   0                   0
     taud_C26            0.266667           0.0666667                 0.5                   0                   0                   0                   0
     taud_C27            0.466667           0.0666667                 0.5                   0                   0                   0                   0
     taud_C28            0.666667           0.0666667                 0.5                   0                   0                   0                   0
     taud_C29            0.866667           0.0666667                 0.5                   0                   0                   0                   0
     taud_C30           0.0666667            0.266667                 0.5                   0                   0                   0                   0
     taud_C31            0.266667            0.266667                 0.5                   0                   0                   0                   0
     taud_C32            0.466667            0.266667                 0.5                   0                   0                   0                   0
     taud_C33            0.666667            0.266667                 0.5                   0                   0                   0                   0
     taud_C34            0.866667            0.266667                 0.5                   0                   0                   0                   0
     taud_C35           0.0666667            0.466667                 0.5                   0                   0                   0                   0
     taud_C36            0.266667            0.466667                 0.5                   0                   0                   0                   0
     taud_C37            0.466667            0.466667                 0.5                   0                   0                   0                   0
     taud_C38            0.666667            0.466667                 0.5                   0                   0                   0                   0
     taud_C39            0.866667            0.466667                 0.5                   0                   0                   0                   0
     taud_C40           0.0666667            0.666667                 0.5                   0                   0                   0                   0
     taud_C41            0.266667            0.666667                 0.5                   0                   0                   0                   0
     taud_C42            0.466667            0.666667                 0.5                   0                   0                   0                   0
     taud_C43            0.666667            0.666667                 0.5                   0                   0                   0                   0
     taud_C44            0.866667            0.666667                 0.5                   0                   0                   0                   0
     taud_C45           0.0666667            0.866667                 0.5                   0                   0                   0                   0
     taud_C46            0.266667            0.866667                 0.5                   0                   0                   0                   0
     taud_C47            0.466667            0.866667                 0.5                   0                   0                   0                   0
     taud_C48            0.666667            0.866667                 0.5                   0                   0                   0                   0
     taud_C49            0.866667            0.866667                 0.5                   0                   0                   0                   0


 READING ORBITAL FILE NAMES FOR LCAO
 orbital file: C_gga_6au_60Ry_2s2p1d.orb

                          Volume (Bohr^3) = 13754.8
                             Volume (A^3) = 2038.24

 Lattice vectors: (Cartesian coordinate: in unit of a_0)
             +12.3191                  +0                  +0
             +6.17281            +10.6763                  +0
                   +0                  +0            +15.4974
 Reciprocal vectors: (Cartesian coordinate: in unit of 2 pi/a_0)
           +0.0811751          -0.0469338                  +0
                   -0          +0.0936657                  -0
                   +0                  -0          +0.0645268




 >>>>>>>>>>>>>>>>>>>>>>>>>>>>>>>>>>>>>>>>>>>>>>>>>>>>>>>>>>>>>>>>>>>>>>
 |                                                                    |
 | Reading pseudopotentials files:                                    |
 | The pseudopotential file is in UPF format. The 'NC' indicates that |
 | the type of pseudopotential is 'norm conserving'. Functional of    |
 | exchange and correlation is decided by 4 given parameters in UPF   |
 | file.  We also read in the 'core correction' if there exists.      |
 | Also we can read the valence electrons number and the maximal      |
 | angular momentum used in this pseudopotential. We also read in the |
 | trail wave function, trail atomic density and local-pseudopotential|
 | on logrithmic grid. The non-local pseudopotential projector is also|
 | read in if there is any.                                           |
 |                                                                    |
 <<<<<<<<<<<<<<<<<<<<<<<<<<<<<<<<<<<<<<<<<<<<<<<<<<<<<<<<<<<<<<<<<<<<<<




                PAO radial cut off (Bohr) = 15

 Read in pseudopotential file is ./C_ONCV_PBE-1.2.upf
                     pseudopotential type = NC
          exchange-correlation functional = PBE
                 nonlocal core correction = 0
                        valence electrons = 4
                                     lmax = 1
                           number of zeta = 0
                     number of projectors = 4
                           L of projector = 0
                           L of projector = 0
                           L of projector = 1
                           L of projector = 1
     initial pseudo atomic orbital number = 0
                                   NLOCAL = 637




 >>>>>>>>>>>>>>>>>>>>>>>>>>>>>>>>>>>>>>>>>>>>>>>>>>>>>>>>>>>>>>>>>>>>>>
 |                                                                    |
 | Setup plane waves of charge/potential:                             |
 | Use the energy cutoff and the lattice vectors to generate the      |
 | dimensions of FFT grid. The number of FFT grid on each processor   |
 | is 'nrxx'. The number of plane wave basis in reciprocal space is   |
 | different for charege/potential and wave functions. We also set    |
 | the 'sticks' for the parallel of FFT. The number of plane waves    |
 | is 'npw' in each processor.                                        |
 <<<<<<<<<<<<<<<<<<<<<<<<<<<<<<<<<<<<<<<<<<<<<<<<<<<<<<<<<<<<<<<<<<<<<<





 SETUP THE PLANE WAVE BASIS
 energy cutoff for charge/potential (unit:Ry) = 240
          [fft grid for charge/potential] = 120, 120, 150
                      [fft grid division] = 2, 2, 2
      [big fft grid for charge/potential] = 60, 60, 75
                                     nbxx = 18000
                                     nrxx = 144000

 SETUP PLANE WAVES FOR CHARGE/POTENTIAL
                    number of plane waves = 863891
                         number of sticks = 8975

 PARALLEL PW FOR CHARGE/POTENTIAL
     PROC   COLUMNS(POT)             PW
        1            560          53992
        2            560          53992
        3            561          53995
        4            561          53995
        5            561          53991
        6            561          53991
        7            561          53995
        8            561          53995
        9            561          53993
       10            561          53993
       11            561          53993
       12            561          53993
       13            561          53993
       14            561          53993
       15            561          53995
       16            562          53992
 --------------- sum -------------------
       16           8975         863891
                            number of |g| = 26423
                                  max |g| = 21.7092
                                  min |g| = 0.00879218

 SETUP THE ELECTRONS NUMBER
             electron number of element C = 4
       total electron number of element C = 196
            AUTOSET number of electrons:  = 196
 DONE : SETUP UNITCELL Time : 0.0756428 (SEC)





 >>>>>>>>>>>>>>>>>>>>>>>>>>>>>>>>>>>>>>>>>>>>>>>>>>>>>>>>>>>>>>>>>>>>>>
 |                                                                    |
 | Setup K-points                                                     |
 | We setup the k-points according to input parameters.               |
 | The reduced k-points are set according to symmetry operations.     |
 | We treat the spin as another set of k-points.                      |
 |                                                                    |
 <<<<<<<<<<<<<<<<<<<<<<<<<<<<<<<<<<<<<<<<<<<<<<<<<<<<<<<<<<<<<<<<<<<<<<





 SETUP K-POINTS
                                    nspin = 1
                                   nkstot = 201

  KPOINTS            DIRECT_X            DIRECT_Y            DIRECT_Z              WEIGHT
        1                 2.5                 2.5                   0                   1
        2               2.475               2.475                   0                   1
        3                2.45                2.45                   0                   1
        4               2.425               2.425                   0                   1
        5                 2.4                 2.4                   0                   1
        6               2.375               2.375                   0                   1
        7                2.35                2.35                   0                   1
        8               2.325               2.325                   0                   1
        9                 2.3                 2.3                   0                   1
       10               2.275               2.275                   0                   1
       11                2.25                2.25                   0                   1
       12               2.225               2.225                   0                   1
       13                 2.2                 2.2                   0                   1
       14               2.175               2.175                   0                   1
       15                2.15                2.15                   0                   1
       16               2.125               2.125                   0                   1
       17                 2.1                 2.1                   0                   1
       18               2.075               2.075                   0                   1
       19                2.05                2.05                   0                   1
       20               2.025               2.025                   0                   1
       21                   2                   2                   0                   1
       22               1.975               1.975                   0                   1
       23                1.95                1.95                   0                   1
       24               1.925               1.925                   0                   1
       25                 1.9                 1.9                   0                   1
       26               1.875               1.875                   0                   1
       27                1.85                1.85                   0                   1
       28               1.825               1.825                   0                   1
       29                 1.8                 1.8                   0                   1
       30               1.775               1.775                   0                   1
       31                1.75                1.75                   0                   1
       32               1.725               1.725                   0                   1
       33                 1.7                 1.7                   0                   1
       34               1.675               1.675                   0                   1
       35                1.65                1.65                   0                   1
       36               1.625               1.625                   0                   1
       37                 1.6                 1.6                   0                   1
       38               1.575               1.575                   0                   1
       39                1.55                1.55                   0                   1
       40               1.525               1.525                   0                   1
       41                 1.5                 1.5                   0                   1
       42               1.475               1.475                   0                   1
       43                1.45                1.45                   0                   1
       44               1.425               1.425                   0                   1
       45                 1.4                 1.4                   0                   1
       46               1.375               1.375                   0                   1
       47                1.35                1.35                   0                   1
       48               1.325               1.325                   0                   1
       49                 1.3                 1.3                   0                   1
       50               1.275               1.275                   0                   1
       51                1.25                1.25                   0                   1
       52               1.225               1.225                   0                   1
       53                 1.2                 1.2                   0                   1
       54               1.175               1.175                   0                   1
       55                1.15                1.15                   0                   1
       56               1.125               1.125                   0                   1
       57                 1.1                 1.1                   0                   1
       58               1.075               1.075                   0                   1
       59                1.05                1.05                   0                   1
       60               1.025               1.025                   0                   1
       61                   1                   1                   0                   1
       62               0.975               0.975                   0                   1
       63                0.95                0.95                   0                   1
       64               0.925               0.925                   0                   1
       65                 0.9                 0.9                   0                   1
       66               0.875               0.875                   0                   1
       67                0.85                0.85                   0                   1
       68               0.825               0.825                   0                   1
       69                 0.8                 0.8                   0                   1
       70               0.775               0.775                   0                   1
       71                0.75                0.75                   0                   1
       72               0.725               0.725                   0                   1
       73                 0.7                 0.7                   0                   1
       74               0.675               0.675                   0                   1
       75                0.65                0.65                   0                   1
       76               0.625               0.625                   0                   1
       77                 0.6                 0.6                   0                   1
       78               0.575               0.575                   0                   1
       79                0.55                0.55                   0                   1
       80               0.525               0.525                   0                   1
       81                 0.5                 0.5                   0                   1
       82               0.475               0.475                   0                   1
       83                0.45                0.45                   0                   1
       84               0.425               0.425                   0                   1
       85                 0.4                 0.4                   0                   1
       86               0.375               0.375                   0                   1
       87                0.35                0.35                   0                   1
       88               0.325               0.325                   0                   1
       89                 0.3                 0.3                   0                   1
       90               0.275               0.275                   0                   1
       91                0.25                0.25                   0                   1
       92               0.225               0.225                   0                   1
       93                 0.2                 0.2                   0                   1
       94               0.175               0.175                   0                   1
       95                0.15                0.15                   0                   1
       96               0.125               0.125                   0                   1
       97                 0.1                 0.1                   0                   1
       98               0.075               0.075                   0                   1
       99                0.05                0.05                   0                   1
      100               0.025               0.025                   0                   1
      101                   0                   0                   0                   1
      102           0.0166667           0.0333333                   0                   1
      103           0.0333333           0.0666667                   0                   1
      104                0.05                 0.1                   0                   1
      105           0.0666667            0.133333                   0                   1
      106           0.0833333            0.166667                   0                   1
      107                 0.1                 0.2                   0                   1
      108            0.116667            0.233333                   0                   1
      109            0.133333            0.266667                   0                   1
      110                0.15                 0.3                   0                   1
      111            0.166667            0.333333                   0                   1
      112            0.183333            0.366667                   0                   1
      113                 0.2                 0.4                   0                   1
      114            0.216667            0.433333                   0                   1
      115            0.233333            0.466667                   0                   1
      116                0.25                 0.5                   0                   1
      117            0.266667            0.533333                   0                   1
      118            0.283333            0.566667                   0                   1
      119                 0.3                 0.6                   0                   1
      120            0.316667            0.633333                   0                   1
      121            0.333333            0.666667                   0                   1
      122                0.35                 0.7                   0                   1
      123            0.366667            0.733333                   0                   1
      124            0.383333            0.766667                   0                   1
      125                 0.4                 0.8                   0                   1
      126            0.416667            0.833333                   0                   1
      127            0.433333            0.866667                   0                   1
      128                0.45                 0.9                   0                   1
      129            0.466667            0.933333                   0                   1
      130            0.483333            0.966667                   0                   1
      131                 0.5                   1                   0                   1
      132            0.516667             1.03333                   0                   1
      133            0.533333             1.06667                   0                   1
      134                0.55                 1.1                   0                   1
      135            0.566667             1.13333                   0                   1
      136            0.583333             1.16667                   0                   1
      137                 0.6                 1.2                   0                   1
      138            0.616667             1.23333                   0                   1
      139            0.633333             1.26667                   0                   1
      140                0.65                 1.3                   0                   1
      141            0.666667             1.33333                   0                   1
      142            0.683333             1.36667                   0                   1
      143                 0.7                 1.4                   0                   1
      144            0.716667             1.43333                   0                   1
      145            0.733333             1.46667                   0                   1
      146                0.75                 1.5                   0                   1
      147            0.766667             1.53333                   0                   1
      148            0.783333             1.56667                   0                   1
      149                 0.8                 1.6                   0                   1
      150            0.816667             1.63333                   0                   1
      151            0.833333             1.66667                   0                   1
      152                0.85                 1.7                   0                   1
      153            0.866667             1.73333                   0                   1
      154            0.883333             1.76667                   0                   1
      155                 0.9                 1.8                   0                   1
      156            0.916667             1.83333                   0                   1
      157            0.933333             1.86667                   0                   1
      158                0.95                 1.9                   0                   1
      159            0.966667             1.93333                   0                   1
      160            0.983333             1.96667                   0                   1
      161                   1                   2                   0                   1
      162             1.01667             2.03333                   0                   1
      163             1.03333             2.06667                   0                   1
      164                1.05                 2.1                   0                   1
      165             1.06667             2.13333                   0                   1
      166             1.08333             2.16667                   0                   1
      167                 1.1                 2.2                   0                   1
      168             1.11667             2.23333                   0                   1
      169             1.13333             2.26667                   0                   1
      170                1.15                 2.3                   0                   1
      171             1.16667             2.33333                   0                   1
      172             1.18333             2.36667                   0                   1
      173                 1.2                 2.4                   0                   1
      174             1.21667             2.43333                   0                   1
      175             1.23333             2.46667                   0                   1
      176                1.25                 2.5                   0                   1
      177             1.26667             2.53333                   0                   1
      178             1.28333             2.56667                   0                   1
      179                 1.3                 2.6                   0                   1
      180             1.31667             2.63333                   0                   1
      181             1.33333             2.66667                   0                   1
      182                1.35                 2.7                   0                   1
      183             1.36667             2.73333                   0                   1
      184             1.38333             2.76667                   0                   1
      185                 1.4                 2.8                   0                   1
      186             1.41667             2.83333                   0                   1
      187             1.43333             2.86667                   0                   1
      188                1.45                 2.9                   0                   1
      189             1.46667             2.93333                   0                   1
      190             1.48333             2.96667                   0                   1
      191                 1.5                   3                   0                   1
      192             1.51667             3.03333                   0                   1
      193             1.53333             3.06667                   0                   1
      194                1.55                 3.1                   0                   1
      195             1.56667             3.13333                   0                   1
      196             1.58333             3.16667                   0                   1
      197                 1.6                 3.2                   0                   1
      198             1.61667             3.23333                   0                   1
      199             1.63333             3.26667                   0                   1
      200                1.65                 3.3                   0                   1
      201             1.66667             3.33333                   0                   1

           k-point number in this process = 201
       minimum distributed K point number = 201

  KPOINTS         CARTESIAN_X         CARTESIAN_Y         CARTESIAN_Z              WEIGHT
        1            0.202938             0.11683                   0          0.00995025
        2            0.200908            0.115661                   0          0.00995025
        3            0.198879            0.114493                   0          0.00995025
        4             0.19685            0.113325                   0          0.00995025
        5             0.19482            0.112156                   0          0.00995025
        6            0.192791            0.110988                   0          0.00995025
        7            0.190761             0.10982                   0          0.00995025
        8            0.188732            0.108652                   0          0.00995025
        9            0.186703            0.107483                   0          0.00995025
       10            0.184673            0.106315                   0          0.00995025
       11            0.182644            0.105147                   0          0.00995025
       12            0.180615            0.103978                   0          0.00995025
       13            0.178585             0.10281                   0          0.00995025
       14            0.176556            0.101642                   0          0.00995025
       15            0.174526            0.100473                   0          0.00995025
       16            0.172497           0.0993052                   0          0.00995025
       17            0.170468           0.0981369                   0          0.00995025
       18            0.168438           0.0969686                   0          0.00995025
       19            0.166409           0.0958003                   0          0.00995025
       20             0.16438            0.094632                   0          0.00995025
       21             0.16235           0.0934637                   0          0.00995025
       22            0.160321           0.0922954                   0          0.00995025
       23            0.158291           0.0911271                   0          0.00995025
       24            0.156262           0.0899588                   0          0.00995025
       25            0.154233           0.0887905                   0          0.00995025
       26            0.152203           0.0876222                   0          0.00995025
       27            0.150174           0.0864539                   0          0.00995025
       28            0.148145           0.0852856                   0          0.00995025
       29            0.146115           0.0841173                   0          0.00995025
       30            0.144086            0.082949                   0          0.00995025
       31            0.142056           0.0817807                   0          0.00995025
       32            0.140027           0.0806124                   0          0.00995025
       33            0.137998           0.0794441                   0          0.00995025
       34            0.135968           0.0782758                   0          0.00995025
       35            0.133939           0.0771075                   0          0.00995025
       36            0.131909           0.0759392                   0          0.00995025
       37             0.12988            0.074771                   0          0.00995025
       38            0.127851           0.0736027                   0          0.00995025
       39            0.125821           0.0724344                   0          0.00995025
       40            0.123792           0.0712661                   0          0.00995025
       41            0.121763           0.0700978                   0          0.00995025
       42            0.119733           0.0689295                   0          0.00995025
       43            0.117704           0.0677612                   0          0.00995025
       44            0.115674           0.0665929                   0          0.00995025
       45            0.113645           0.0654246                   0          0.00995025
       46            0.111616           0.0642563                   0          0.00995025
       47            0.109586            0.063088                   0          0.00995025
       48            0.107557           0.0619197                   0          0.00995025
       49            0.105528           0.0607514                   0          0.00995025
       50            0.103498           0.0595831                   0          0.00995025
       51            0.101469           0.0584148                   0          0.00995025
       52           0.0994395           0.0572465                   0          0.00995025
       53           0.0974101           0.0560782                   0          0.00995025
       54           0.0953807           0.0549099                   0          0.00995025
       55           0.0933513           0.0537416                   0          0.00995025
       56            0.091322           0.0525733                   0          0.00995025
       57           0.0892926            0.051405                   0          0.00995025
       58           0.0872632           0.0502367                   0          0.00995025
       59           0.0852338           0.0490684                   0          0.00995025
       60           0.0832045           0.0479001                   0          0.00995025
       61           0.0811751           0.0467318                   0          0.00995025
       62           0.0791457           0.0455635                   0          0.00995025
       63           0.0771163           0.0443953                   0          0.00995025
       64           0.0750869            0.043227                   0          0.00995025
       65           0.0730576           0.0420587                   0          0.00995025
       66           0.0710282           0.0408904                   0          0.00995025
       67           0.0689988           0.0397221                   0          0.00995025
       68           0.0669694           0.0385538                   0          0.00995025
       69           0.0649401           0.0373855                   0          0.00995025
       70           0.0629107           0.0362172                   0          0.00995025
       71           0.0608813           0.0350489                   0          0.00995025
       72           0.0588519           0.0338806                   0          0.00995025
       73           0.0568226           0.0327123                   0          0.00995025
       74           0.0547932            0.031544                   0          0.00995025
       75           0.0527638           0.0303757                   0          0.00995025
       76           0.0507344           0.0292074                   0          0.00995025
       77            0.048705           0.0280391                   0          0.00995025
       78           0.0466757           0.0268708                   0          0.00995025
       79           0.0446463           0.0257025                   0          0.00995025
       80           0.0426169           0.0245342                   0          0.00995025
       81           0.0405875           0.0233659                   0          0.00995025
       82           0.0385582           0.0221976                   0          0.00995025
       83           0.0365288           0.0210293                   0          0.00995025
       84           0.0344994            0.019861                   0          0.00995025
       85             0.03247           0.0186927                   0          0.00995025
       86           0.0304407           0.0175244                   0          0.00995025
       87           0.0284113           0.0163561                   0          0.00995025
       88           0.0263819           0.0151878                   0          0.00995025
       89           0.0243525           0.0140196                   0          0.00995025
       90           0.0223231           0.0128513                   0          0.00995025
       91           0.0202938            0.011683                   0          0.00995025
       92           0.0182644           0.0105147                   0          0.00995025
       93            0.016235          0.00934637                   0          0.00995025
       94           0.0142056          0.00817807                   0          0.00995025
       95           0.0121763          0.00700978                   0          0.00995025
       96           0.0101469          0.00584148                   0          0.00995025
       97          0.00811751          0.00467318                   0          0.00995025
       98          0.00608813          0.00350489                   0          0.00995025
       99          0.00405875          0.00233659                   0          0.00995025
      100          0.00202938           0.0011683                   0          0.00995025
      101                   0                   0                   0          0.00995025
      102          0.00135292          0.00233996                   0          0.00995025
      103          0.00270584          0.00467992                   0          0.00995025
      104          0.00405875          0.00701988                   0          0.00995025
      105          0.00541167          0.00935983                   0          0.00995025
      106          0.00676459           0.0116998                   0          0.00995025
      107          0.00811751           0.0140398                   0          0.00995025
      108          0.00947043           0.0163797                   0          0.00995025
      109           0.0108233           0.0187197                   0          0.00995025
      110           0.0121763           0.0210596                   0          0.00995025
      111           0.0135292           0.0233996                   0          0.00995025
      112           0.0148821           0.0257395                   0          0.00995025
      113            0.016235           0.0280795                   0          0.00995025
      114           0.0175879           0.0304195                   0          0.00995025
      115           0.0189409           0.0327594                   0          0.00995025
      116           0.0202938           0.0350994                   0          0.00995025
      117           0.0216467           0.0374393                   0          0.00995025
      118           0.0229996           0.0397793                   0          0.00995025
      119           0.0243525           0.0421193                   0          0.00995025
      120           0.0257054           0.0444592                   0          0.00995025
      121           0.0270584           0.0467992                   0          0.00995025
      122           0.0284113           0.0491391                   0          0.00995025
      123           0.0297642           0.0514791                   0          0.00995025
      124           0.0311171           0.0538191                   0          0.00995025
      125             0.03247            0.056159                   0          0.00995025
      126           0.0338229            0.058499                   0          0.00995025
      127           0.0351759           0.0608389                   0          0.00995025
      128           0.0365288           0.0631789                   0          0.00995025
      129           0.0378817           0.0655188                   0          0.00995025
      130           0.0392346           0.0678588                   0          0.00995025
      131           0.0405875           0.0701988                   0          0.00995025
      132           0.0419405           0.0725387                   0          0.00995025
      133           0.0432934           0.0748787                   0          0.00995025
      134           0.0446463           0.0772186                   0          0.00995025
      135           0.0459992           0.0795586                   0          0.00995025
      136           0.0473521           0.0818986                   0          0.00995025
      137            0.048705           0.0842385                   0          0.00995025
      138            0.050058           0.0865785                   0          0.00995025
      139           0.0514109           0.0889184                   0          0.00995025
      140           0.0527638           0.0912584                   0          0.00995025
      141           0.0541167           0.0935983                   0          0.00995025
      142           0.0554696           0.0959383                   0          0.00995025
      143           0.0568226           0.0982783                   0          0.00995025
      144           0.0581755            0.100618                   0          0.00995025
      145           0.0595284            0.102958                   0          0.00995025
      146           0.0608813            0.105298                   0          0.00995025
      147           0.0622342            0.107638                   0          0.00995025
      148           0.0635871            0.109978                   0          0.00995025
      149           0.0649401            0.112318                   0          0.00995025
      150            0.066293            0.114658                   0          0.00995025
      151           0.0676459            0.116998                   0          0.00995025
      152           0.0689988            0.119338                   0          0.00995025
      153           0.0703517            0.121678                   0          0.00995025
      154           0.0717047            0.124018                   0          0.00995025
      155           0.0730576            0.126358                   0          0.00995025
      156           0.0744105            0.128698                   0          0.00995025
      157           0.0757634            0.131038                   0          0.00995025
      158           0.0771163            0.133378                   0          0.00995025
      159           0.0784692            0.135718                   0          0.00995025
      160           0.0798222            0.138058                   0          0.00995025
      161           0.0811751            0.140398                   0          0.00995025
      162            0.082528            0.142737                   0          0.00995025
      163           0.0838809            0.145077                   0          0.00995025
      164           0.0852338            0.147417                   0          0.00995025
      165           0.0865867            0.149757                   0          0.00995025
      166           0.0879397            0.152097                   0          0.00995025
      167           0.0892926            0.154437                   0          0.00995025
      168           0.0906455            0.156777                   0          0.00995025
      169           0.0919984            0.159117                   0          0.00995025
      170           0.0933513            0.161457                   0          0.00995025
      171           0.0947043            0.163797                   0          0.00995025
      172           0.0960572            0.166137                   0          0.00995025
      173           0.0974101            0.168477                   0          0.00995025
      174            0.098763            0.170817                   0          0.00995025
      175            0.100116            0.173157                   0          0.00995025
      176            0.101469            0.175497                   0          0.00995025
      177            0.102822            0.177837                   0          0.00995025
      178            0.104175            0.180177                   0          0.00995025
      179            0.105528            0.182517                   0          0.00995025
      180            0.106881            0.184857                   0          0.00995025
      181            0.108233            0.187197                   0          0.00995025
      182            0.109586            0.189537                   0          0.00995025
      183            0.110939            0.191877                   0          0.00995025
      184            0.112292            0.194217                   0          0.00995025
      185            0.113645            0.196557                   0          0.00995025
      186            0.114998            0.198896                   0          0.00995025
      187            0.116351            0.201236                   0          0.00995025
      188            0.117704            0.203576                   0          0.00995025
      189            0.119057            0.205916                   0          0.00995025
      190             0.12041            0.208256                   0          0.00995025
      191            0.121763            0.210596                   0          0.00995025
      192            0.123116            0.212936                   0          0.00995025
      193            0.124468            0.215276                   0          0.00995025
      194            0.125821            0.217616                   0          0.00995025
      195            0.127174            0.219956                   0          0.00995025
      196            0.128527            0.222296                   0          0.00995025
      197             0.12988            0.224636                   0          0.00995025
      198            0.131233            0.226976                   0          0.00995025
      199            0.132586            0.229316                   0          0.00995025
      200            0.133939            0.231656                   0          0.00995025
      201            0.135292            0.233996                   0          0.00995025

  KPOINTS            DIRECT_X            DIRECT_Y            DIRECT_Z              WEIGHT
        1                 2.5                 2.5                   0          0.00995025
        2               2.475               2.475                   0          0.00995025
        3                2.45                2.45                   0          0.00995025
        4               2.425               2.425                   0          0.00995025
        5                 2.4                 2.4                   0          0.00995025
        6               2.375               2.375                   0          0.00995025
        7                2.35                2.35                   0          0.00995025
        8               2.325               2.325                   0          0.00995025
        9                 2.3                 2.3                   0          0.00995025
       10               2.275               2.275                   0          0.00995025
       11                2.25                2.25                   0          0.00995025
       12               2.225               2.225                   0          0.00995025
       13                 2.2                 2.2                   0          0.00995025
       14               2.175               2.175                   0          0.00995025
       15                2.15                2.15                   0          0.00995025
       16               2.125               2.125                   0          0.00995025
       17                 2.1                 2.1                   0          0.00995025
       18               2.075               2.075                   0          0.00995025
       19                2.05                2.05                   0          0.00995025
       20               2.025               2.025                   0          0.00995025
       21                   2                   2                   0          0.00995025
       22               1.975               1.975                   0          0.00995025
       23                1.95                1.95                   0          0.00995025
       24               1.925               1.925                   0          0.00995025
       25                 1.9                 1.9                   0          0.00995025
       26               1.875               1.875                   0          0.00995025
       27                1.85                1.85                   0          0.00995025
       28               1.825               1.825                   0          0.00995025
       29                 1.8                 1.8                   0          0.00995025
       30               1.775               1.775                   0          0.00995025
       31                1.75                1.75                   0          0.00995025
       32               1.725               1.725                   0          0.00995025
       33                 1.7                 1.7                   0          0.00995025
       34               1.675               1.675                   0          0.00995025
       35                1.65                1.65                   0          0.00995025
       36               1.625               1.625                   0          0.00995025
       37                 1.6                 1.6                   0          0.00995025
       38               1.575               1.575                   0          0.00995025
       39                1.55                1.55                   0          0.00995025
       40               1.525               1.525                   0          0.00995025
       41                 1.5                 1.5                   0          0.00995025
       42               1.475               1.475                   0          0.00995025
       43                1.45                1.45                   0          0.00995025
       44               1.425               1.425                   0          0.00995025
       45                 1.4                 1.4                   0          0.00995025
       46               1.375               1.375                   0          0.00995025
       47                1.35                1.35                   0          0.00995025
       48               1.325               1.325                   0          0.00995025
       49                 1.3                 1.3                   0          0.00995025
       50               1.275               1.275                   0          0.00995025
       51                1.25                1.25                   0          0.00995025
       52               1.225               1.225                   0          0.00995025
       53                 1.2                 1.2                   0          0.00995025
       54               1.175               1.175                   0          0.00995025
       55                1.15                1.15                   0          0.00995025
       56               1.125               1.125                   0          0.00995025
       57                 1.1                 1.1                   0          0.00995025
       58               1.075               1.075                   0          0.00995025
       59                1.05                1.05                   0          0.00995025
       60               1.025               1.025                   0          0.00995025
       61                   1                   1                   0          0.00995025
       62               0.975               0.975                   0          0.00995025
       63                0.95                0.95                   0          0.00995025
       64               0.925               0.925                   0          0.00995025
       65                 0.9                 0.9                   0          0.00995025
       66               0.875               0.875                   0          0.00995025
       67                0.85                0.85                   0          0.00995025
       68               0.825               0.825                   0          0.00995025
       69                 0.8                 0.8                   0          0.00995025
       70               0.775               0.775                   0          0.00995025
       71                0.75                0.75                   0          0.00995025
       72               0.725               0.725                   0          0.00995025
       73                 0.7                 0.7                   0          0.00995025
       74               0.675               0.675                   0          0.00995025
       75                0.65                0.65                   0          0.00995025
       76               0.625               0.625                   0          0.00995025
       77                 0.6                 0.6                   0          0.00995025
       78               0.575               0.575                   0          0.00995025
       79                0.55                0.55                   0          0.00995025
       80               0.525               0.525                   0          0.00995025
       81                 0.5                 0.5                   0          0.00995025
       82               0.475               0.475                   0          0.00995025
       83                0.45                0.45                   0          0.00995025
       84               0.425               0.425                   0          0.00995025
       85                 0.4                 0.4                   0          0.00995025
       86               0.375               0.375                   0          0.00995025
       87                0.35                0.35                   0          0.00995025
       88               0.325               0.325                   0          0.00995025
       89                 0.3                 0.3                   0          0.00995025
       90               0.275               0.275                   0          0.00995025
       91                0.25                0.25                   0          0.00995025
       92               0.225               0.225                   0          0.00995025
       93                 0.2                 0.2                   0          0.00995025
       94               0.175               0.175                   0          0.00995025
       95                0.15                0.15                   0          0.00995025
       96               0.125               0.125                   0          0.00995025
       97                 0.1                 0.1                   0          0.00995025
       98               0.075               0.075                   0          0.00995025
       99                0.05                0.05                   0          0.00995025
      100               0.025               0.025                   0          0.00995025
      101                   0                   0                   0          0.00995025
      102           0.0166667           0.0333333                   0          0.00995025
      103           0.0333333           0.0666667                   0          0.00995025
      104                0.05                 0.1                   0          0.00995025
      105           0.0666667            0.133333                   0          0.00995025
      106           0.0833333            0.166667                   0          0.00995025
      107                 0.1                 0.2                   0          0.00995025
      108            0.116667            0.233333                   0          0.00995025
      109            0.133333            0.266667                   0          0.00995025
      110                0.15                 0.3                   0          0.00995025
      111            0.166667            0.333333                   0          0.00995025
      112            0.183333            0.366667                   0          0.00995025
      113                 0.2                 0.4                   0          0.00995025
      114            0.216667            0.433333                   0          0.00995025
      115            0.233333            0.466667                   0          0.00995025
      116                0.25                 0.5                   0          0.00995025
      117            0.266667            0.533333                   0          0.00995025
      118            0.283333            0.566667                   0          0.00995025
      119                 0.3                 0.6                   0          0.00995025
      120            0.316667            0.633333                   0          0.00995025
      121            0.333333            0.666667                   0          0.00995025
      122                0.35                 0.7                   0          0.00995025
      123            0.366667            0.733333                   0          0.00995025
      124            0.383333            0.766667                   0          0.00995025
      125                 0.4                 0.8                   0          0.00995025
      126            0.416667            0.833333                   0          0.00995025
      127            0.433333            0.866667                   0          0.00995025
      128                0.45                 0.9                   0          0.00995025
      129            0.466667            0.933333                   0          0.00995025
      130            0.483333            0.966667                   0          0.00995025
      131                 0.5                   1                   0          0.00995025
      132            0.516667             1.03333                   0          0.00995025
      133            0.533333             1.06667                   0          0.00995025
      134                0.55                 1.1                   0          0.00995025
      135            0.566667             1.13333                   0          0.00995025
      136            0.583333             1.16667                   0          0.00995025
      137                 0.6                 1.2                   0          0.00995025
      138            0.616667             1.23333                   0          0.00995025
      139            0.633333             1.26667                   0          0.00995025
      140                0.65                 1.3                   0          0.00995025
      141            0.666667             1.33333                   0          0.00995025
      142            0.683333             1.36667                   0          0.00995025
      143                 0.7                 1.4                   0          0.00995025
      144            0.716667             1.43333                   0          0.00995025
      145            0.733333             1.46667                   0          0.00995025
      146                0.75                 1.5                   0          0.00995025
      147            0.766667             1.53333                   0          0.00995025
      148            0.783333             1.56667                   0          0.00995025
      149                 0.8                 1.6                   0          0.00995025
      150            0.816667             1.63333                   0          0.00995025
      151            0.833333             1.66667                   0          0.00995025
      152                0.85                 1.7                   0          0.00995025
      153            0.866667             1.73333                   0          0.00995025
      154            0.883333             1.76667                   0          0.00995025
      155                 0.9                 1.8                   0          0.00995025
      156            0.916667             1.83333                   0          0.00995025
      157            0.933333             1.86667                   0          0.00995025
      158                0.95                 1.9                   0          0.00995025
      159            0.966667             1.93333                   0          0.00995025
      160            0.983333             1.96667                   0          0.00995025
      161                   1                   2                   0          0.00995025
      162             1.01667             2.03333                   0          0.00995025
      163             1.03333             2.06667                   0          0.00995025
      164                1.05                 2.1                   0          0.00995025
      165             1.06667             2.13333                   0          0.00995025
      166             1.08333             2.16667                   0          0.00995025
      167                 1.1                 2.2                   0          0.00995025
      168             1.11667             2.23333                   0          0.00995025
      169             1.13333             2.26667                   0          0.00995025
      170                1.15                 2.3                   0          0.00995025
      171             1.16667             2.33333                   0          0.00995025
      172             1.18333             2.36667                   0          0.00995025
      173                 1.2                 2.4                   0          0.00995025
      174             1.21667             2.43333                   0          0.00995025
      175             1.23333             2.46667                   0          0.00995025
      176                1.25                 2.5                   0          0.00995025
      177             1.26667             2.53333                   0          0.00995025
      178             1.28333             2.56667                   0          0.00995025
      179                 1.3                 2.6                   0          0.00995025
      180             1.31667             2.63333                   0          0.00995025
      181             1.33333             2.66667                   0          0.00995025
      182                1.35                 2.7                   0          0.00995025
      183             1.36667             2.73333                   0          0.00995025
      184             1.38333             2.76667                   0          0.00995025
      185                 1.4                 2.8                   0          0.00995025
      186             1.41667             2.83333                   0          0.00995025
      187             1.43333             2.86667                   0          0.00995025
      188                1.45                 2.9                   0          0.00995025
      189             1.46667             2.93333                   0          0.00995025
      190             1.48333             2.96667                   0          0.00995025
      191                 1.5                   3                   0          0.00995025
      192             1.51667             3.03333                   0          0.00995025
      193             1.53333             3.06667                   0          0.00995025
      194                1.55                 3.1                   0          0.00995025
      195             1.56667             3.13333                   0          0.00995025
      196             1.58333             3.16667                   0          0.00995025
      197                 1.6                 3.2                   0          0.00995025
      198             1.61667             3.23333                   0          0.00995025
      199             1.63333             3.26667                   0          0.00995025
      200                1.65                 3.3                   0          0.00995025
      201             1.66667             3.33333                   0          0.00995025
 DONE : INIT K-POINTS Time : 0.11852 (SEC)

                           occupied bands = 98
                                   NLOCAL = 637
                                   NBANDS = 117
                                   NBANDS = 117




 >>>>>>>>>>>>>>>>>>>>>>>>>>>>>>>>>>>>>>>>>>>>>>>>>>>>>>>>>>>>>>>>>>>>>>
 |                                                                    |
 | Setup numerical orbitals:                                          |
 | This part setup: numerical atomic orbitals, non-local projectors   |
 | and neutral potential (1D). The atomic orbitals information        |
 | including the radius, angular momentum and zeta number.            |
 | The neutral potential is the sum of local part of pseudopotential  |
 | and potential given by atomic charge, they will cancel out beyond  |
 | a certain radius cutoff, because the Z/r character.                |
 |                                                                    |
 <<<<<<<<<<<<<<<<<<<<<<<<<<<<<<<<<<<<<<<<<<<<<<<<<<<<<<<<<<<<<<<<<<<<<<





 SETUP ONE DIMENSIONAL ORBITALS/POTENTIAL
                        delta k  (1/Bohr) = 0.01
                        delta r    (Bohr) = 0.01
                        dr_uniform (Bohr) = 0.001
                        rmax       (Bohr) = 30
                                    kmesh = 779
      ORBITAL  L  N      nr      dr    RCUT  CHECK_UNIT    NEW_UNIT
            1  0  0     601    0.01       6           1           1
            2  0  1     601    0.01       6           1           1
            3  1  0     601    0.01       6           1           1
            4  1  1     601    0.01       6           1           1
            5  2  0     601    0.01       6           1           1
 SET NONLOCAL PSEUDOPOTENTIAL PROJECTORS
 max number of nonlocal projetors among all species is 4

 SETUP THE TWO-CENTER INTEGRATION TABLES

 SETUP THE DIVISION OF H/S MATRIX
 divide the H&S matrix using 2D block algorithms.
                                     nb2d = 32
                  trace_loc_row dimension = 637
                  trace_loc_col dimension = 637
                                     nloc = 25600




 >>>>>>>>>>>>>>>>>>>>>>>>>>>>>>>>>>>>>>>>>>>>>>>>>>>>>>>>>>>>>>>>>>>>>>
 |                                                                    |
 | Search adjacent atoms:                                             |
 | Set the adjacent atoms for each atom and set the periodic boundary |
 | condition for the atoms on real space FFT grid. For k-dependent    |
 | algorithm, we also need to set the sparse H and S matrix element   |
 | for each atom.                                                     |
 |                                                                    |
 <<<<<<<<<<<<<<<<<<<<<<<<<<<<<<<<<<<<<<<<<<<<<<<<<<<<<<<<<<<<<<<<<<<<<<





 SETUP SEARCHING RADIUS FOR PROGRAM TO SEARCH ADJACENT ATOMS
                  longest orb rcut (Bohr) = 6
   longest nonlocal projector rcut (Bohr) = 1.44
              searching radius is (Bohr)) = 14.9
         searching radius unit is (Bohr)) = 1.89

 SETUP EXTENDED REAL SPACE GRID FOR GRID INTEGRATION
                        [real space grid] = 120, 120, 150
               [big cell numbers in grid] = 60, 60, 75
           [meshcell numbers in big cell] = 2, 2, 2
                      [extended fft grid] = 18, 18, 16
              [dimension of extened grid] = 97, 97, 108
                            UnitCellTotal = 27
 No atoms on this sub-FFT-mesh.
              Atom number in sub-FFT-grid = 0
    Local orbitals number in sub-FFT-grid = 0
                                ParaV.nnr = 32022
                                     nnrg = 0
Successful completion of Potential's registration : local
Successful completion of Potential's registration : hartree
Successful completion of Potential's registration : xc
Successful completion of Potential's registration : tddft
 Memory of pvpR : 0 MB
                                nnrg_last = 0
                                 nnrg_now = 0
                                 init_chg = file
 try to read charge from file : OUT.ABACUS/SPIN1_CHG
 Find the file, try to read charge from file.
 read in fermi energy = -0.131
 Read in the charge density: OUT.ABACUS/SPIN1_CHG
 end of band structure calculation 
 band eigenvalue in this processor (eV) :
 k-points1(201): 0.202938 0.11683 0
 spin1final_state 1 -21.0091 0
 spin1final_state 2 -20.8956 0
 spin1final_state 3 -20.5468 0
 spin1final_state 4 -20.3786 0
 spin1final_state 5 -19.6466 0
 spin1final_state 6 -19.602 0
 spin1final_state 7 -19.5791 0
 spin1final_state 8 -19.387 0
 spin1final_state 9 -19.1134 0
 spin1final_state 10 -18.9059 0
 spin1final_state 11 -18.2677 0
 spin1final_state 12 -18.2393 0
 spin1final_state 13 -18.1565 0
 spin1final_state 14 -17.8132 0
 spin1final_state 15 -16.9554 0
 spin1final_state 16 -16.9385 0
 spin1final_state 17 -16.81 0
 spin1final_state 18 -16.7552 0
 spin1final_state 19 -16.5238 0
 spin1final_state 20 -16.4666 0
 spin1final_state 21 -16.4341 0
 spin1final_state 22 -16.1422 0
 spin1final_state 23 -15.6152 0
 spin1final_state 24 -15.231 0
 spin1final_state 25 -15.0587 0
 spin1final_state 26 -14.6423 0
 spin1final_state 27 -14.1426 0
 spin1final_state 28 -14.1198 0
 spin1final_state 29 -13.9231 0
 spin1final_state 30 -13.8563 0
 spin1final_state 31 -13.5304 0
 spin1final_state 32 -13.1237 0
 spin1final_state 33 -12.7387 0
 spin1final_state 34 -12.7225 0
 spin1final_state 35 -12.5087 0
 spin1final_state 36 -12.1899 0
 spin1final_state 37 -11.9443 0
 spin1final_state 38 -11.855 0
 spin1final_state 39 -11.7395 0
 spin1final_state 40 -11.5535 0
 spin1final_state 41 -11.5228 0
 spin1final_state 42 -10.9238 0
 spin1final_state 43 -10.451 0
 spin1final_state 44 -10.3545 0
 spin1final_state 45 -10.335 0
 spin1final_state 46 -10.2689 0
 spin1final_state 47 -9.96407 0
 spin1final_state 48 -9.73755 0
 spin1final_state 49 -9.25773 0
 spin1final_state 50 -9.21865 0
 spin1final_state 51 -9.10472 0
 spin1final_state 52 -9.08593 0
 spin1final_state 53 -8.96144 0
 spin1final_state 54 -8.95589 0
 spin1final_state 55 -8.9146 0
 spin1final_state 56 -8.73151 0
 spin1final_state 57 -8.68986 0
 spin1final_state 58 -8.5252 0
 spin1final_state 59 -8.51409 0
 spin1final_state 60 -8.43418 0
 spin1final_state 61 -8.35211 0
 spin1final_state 62 -8.35037 0
 spin1final_state 63 -7.97981 0
 spin1final_state 64 -7.96691 0
 spin1final_state 65 -7.63573 0
 spin1final_state 66 -7.52995 0
 spin1final_state 67 -7.44613 0
 spin1final_state 68 -7.44201 0
 spin1final_state 69 -7.41707 0
 spin1final_state 70 -7.39744 0
 spin1final_state 71 -7.31939 0
 spin1final_state 72 -7.30676 0
 spin1final_state 73 -7.19519 0
 spin1final_state 74 -7.18574 0
 spin1final_state 75 -6.86852 0
 spin1final_state 76 -6.81087 0
 spin1final_state 77 -6.65043 0
 spin1final_state 78 -6.31603 0
 spin1final_state 79 -6.15862 0
[...]
 spin1final_state 109 1.30286 0
 spin1final_state 110 1.47857 0
 spin1final_state 111 1.93205 0
 spin1final_state 112 2.09735 0
 spin1final_state 113 3.08222 0
 spin1final_state 114 3.83921 0
 spin1final_state 115 4.18299 0
 spin1final_state 116 4.55019 0
 spin1final_state 117 4.75917 0

 k-points198(201): 0.131233 0.226976 0
 spin1final_state 1 -20.9752 0
 spin1final_state 2 -20.8889 0
 spin1final_state 3 -20.7138 0
 spin1final_state 4 -20.1235 0
 spin1final_state 5 -19.8908 0
 spin1final_state 6 -19.7552 0
 spin1final_state 7 -19.2543 0
 spin1final_state 8 -19.1975 0
 spin1final_state 9 -19.0722 0
 spin1final_state 10 -18.9445 0
 spin1final_state 11 -18.8502 0
 spin1final_state 12 -18.4261 0
 spin1final_state 13 -17.6043 0
 spin1final_state 14 -17.4074 0
 spin1final_state 15 -17.1529 0
 spin1final_state 16 -17.1469 0
 spin1final_state 17 -17.0192 0
 spin1final_state 18 -16.8461 0
 spin1final_state 19 -16.5138 0
 spin1final_state 20 -16.3832 0
 spin1final_state 21 -16.055 0
 spin1final_state 22 -16.0011 0
 spin1final_state 23 -15.9469 0
 spin1final_state 24 -15.2895 0
 spin1final_state 25 -14.8659 0
 spin1final_state 26 -14.7686 0
 spin1final_state 27 -14.618 0
 spin1final_state 28 -14.2798 0
 spin1final_state 29 -13.7875 0
 spin1final_state 30 -13.2816 0
 spin1final_state 31 -13.1585 0
 spin1final_state 32 -12.8851 0
 spin1final_state 33 -12.8033 0
 spin1final_state 34 -12.7657 0
 spin1final_state 35 -12.6226 0
 spin1final_state 36 -12.5308 0
 spin1final_state 37 -12.4729 0
 spin1final_state 38 -12.079 0
 spin1final_state 39 -11.514 0
 spin1final_state 40 -11.2862 0
 spin1final_state 41 -11.0315 0
 spin1final_state 42 -10.8906 0
 spin1final_state 43 -10.7411 0
 spin1final_state 44 -10.642 0
 spin1final_state 45 -10.3373 0
 spin1final_state 46 -10.1744 0
 spin1final_state 47 -10.0764 0
 spin1final_state 48 -9.55973 0
 spin1final_state 49 -9.47535 0
 spin1final_state 50 -9.155 0
 spin1final_state 51 -9.06224 0
 spin1final_state 52 -9.0428 0
 spin1final_state 53 -9.03394 0
 spin1final_state 54 -8.94987 0
 spin1final_state 55 -8.83317 0
 spin1final_state 56 -8.74444 0
 spin1final_state 57 -8.70002 0
 spin1final_state 58 -8.64136 0
 spin1final_state 59 -8.57585 0
 spin1final_state 60 -8.28028 0
 spin1final_state 61 -8.24011 0
 spin1final_state 62 -8.02974 0
 spin1final_state 63 -8.02962 0
 spin1final_state 64 -7.80954 0
 spin1final_state 65 -7.74987 0
 spin1final_state 66 -7.73279 0
 spin1final_state 67 -7.62258 0
 spin1final_state 68 -7.61139 0
 spin1final_state 69 -7.50001 0
 spin1final_state 70 -7.45187 0
 spin1final_state 71 -7.35753 0
 spin1final_state 72 -7.06574 0
 spin1final_state 73 -7.002 0
 spin1final_state 74 -6.94444 0
 spin1final_state 75 -6.81773 0
 spin1final_state 76 -6.69374 0
 spin1final_state 77 -6.6764 0
 spin1final_state 78 -6.5436 0
 spin1final_state 79 -6.36134 0
 spin1final_state 80 -6.31171 0
 spin1final_state 81 -6.16379 0
 spin1final_state 82 -5.86345 0
 spin1final_state 83 -5.65613 0
 spin1final_state 84 -5.46878 0
 spin1final_state 85 -5.38829 0
 spin1final_state 86 -5.15718 0
 spin1final_state 87 -4.99792 0
 spin1final_state 88 -4.68867 0
 spin1final_state 89 -4.68082 0
 spin1final_state 90 -4.58801 0
 spin1final_state 91 -4.4058 0
 spin1final_state 92 -4.01144 0
 spin1final_state 93 -3.9886 0
 spin1final_state 94 -3.96088 0
 spin1final_state 95 -3.91518 0
 spin1final_state 96 -3.54411 0
 spin1final_state 97 -2.59203 0
 spin1final_state 98 -1.72233 0
 spin1final_state 99 -1.67536 0
 spin1final_state 100 -1.6568 0
 spin1final_state 101 -1.06141 0
 spin1final_state 102 0.217505 0
 spin1final_state 103 0.231086 0
 spin1final_state 104 0.27163 0
 spin1final_state 105 0.520121 0
 spin1final_state 106 0.879635 0
 spin1final_state 107 1.00474 0
 spin1final_state 108 1.26506 0
 spin1final_state 109 1.35966 0
 spin1final_state 110 1.50684 0
 spin1final_state 111 1.86116 0
 spin1final_state 112 1.96045 0
 spin1final_state 113 3.0916 0
 spin1final_state 114 3.98894 0
 spin1final_state 115 4.25225 0
 spin1final_state 116 4.53649 0
 spin1final_state 117 4.68783 0

 k-points199(201): 0.132586 0.229316 0
 spin1final_state 1 -20.9662 0
 spin1final_state 2 -20.8919 0
 spin1final_state 3 -20.73 0
 spin1final_state 4 -20.0772 0
 spin1final_state 5 -19.9235 0
 spin1final_state 6 -19.7779 0
 spin1final_state 7 -19.1999 0
 spin1final_state 8 -19.1614 0
 spin1final_state 9 -19.0616 0
 spin1final_state 10 -18.9647 0
 spin1final_state 11 -18.9273 0
 spin1final_state 12 -18.4506 0
 spin1final_state 13 -17.5063 0
 spin1final_state 14 -17.3366 0
 spin1final_state 15 -17.194 0
 spin1final_state 16 -17.1878 0
 spin1final_state 17 -17.0816 0
 spin1final_state 18 -16.8741 0
 spin1final_state 19 -16.4637 0
 spin1final_state 20 -16.3547 0
 spin1final_state 21 -16.1273 0
 spin1final_state 22 -15.9744 0
 spin1final_state 23 -15.9243 0
 spin1final_state 24 -15.2902 0
 spin1final_state 25 -14.8527 0
 spin1final_state 26 -14.8064 0
 spin1final_state 27 -14.6554 0
 spin1final_state 28 -14.2604 0
 spin1final_state 29 -13.8139 0
 spin1final_state 30 -13.1621 0
 spin1final_state 31 -13.0543 0
 spin1final_state 32 -12.871 0
 spin1final_state 33 -12.8235 0
 spin1final_state 34 -12.769 0
 spin1final_state 35 -12.699 0
 spin1final_state 36 -12.5869 0
 spin1final_state 37 -12.5285 0
 spin1final_state 38 -12.0935 0
 spin1final_state 39 -11.4892 0
 spin1final_state 40 -11.2386 0
 spin1final_state 41 -11.0755 0
 spin1final_state 42 -10.876 0
 spin1final_state 43 -10.7114 0
 spin1final_state 44 -10.5878 0
 spin1final_state 45 -10.358 0
 spin1final_state 46 -10.2127 0
 spin1final_state 47 -10.173 0
 spin1final_state 48 -9.48824 0
 spin1final_state 49 -9.4445 0
 spin1final_state 50 -9.12709 0
 spin1final_state 51 -9.1119 0
 spin1final_state 52 -9.06234 0
 spin1final_state 53 -9.03088 0
 spin1final_state 54 -8.95304 0
 spin1final_state 55 -8.84783 0
 spin1final_state 56 -8.76572 0
 spin1final_state 57 -8.72334 0
 spin1final_state 58 -8.59715 0
 spin1final_state 59 -8.53164 0
 spin1final_state 60 -8.31 0
 spin1final_state 61 -8.23474 0
 spin1final_state 62 -8.0277 0
 spin1final_state 63 -7.97156 0
 spin1final_state 64 -7.78999 0
 spin1final_state 65 -7.78177 0
 spin1final_state 66 -7.71125 0
 spin1final_state 67 -7.64359 0
 spin1final_state 68 -7.64034 0
 spin1final_state 69 -7.54888 0
 spin1final_state 70 -7.44028 0
 spin1final_state 71 -7.32739 0
 spin1final_state 72 -7.12648 0
 spin1final_state 73 -6.93744 0
 spin1final_state 74 -6.8989 0
 spin1final_state 75 -6.80372 0
 spin1final_state 76 -6.69885 0
 spin1final_state 77 -6.63396 0
 spin1final_state 78 -6.61908 0
 spin1final_state 79 -6.37429 0
 spin1final_state 80 -6.35476 0
 spin1final_state 81 -6.1971 0
 spin1final_state 82 -5.84367 0
 spin1final_state 83 -5.62592 0
 spin1final_state 84 -5.49511 0
 spin1final_state 85 -5.39687 0
 spin1final_state 86 -5.05273 0
 spin1final_state 87 -4.91962 0
 spin1final_state 88 -4.73325 0
 spin1final_state 89 -4.72934 0
 spin1final_state 90 -4.65072 0
 spin1final_state 91 -4.43045 0
 spin1final_state 92 -3.9746 0
 spin1final_state 93 -3.95149 0
 spin1final_state 94 -3.94325 0
 spin1final_state 95 -3.89027 0
 spin1final_state 96 -3.63376 0
 spin1final_state 97 -2.58592 0
 spin1final_state 98 -1.7229 0
 spin1final_state 99 -1.65825 0
 spin1final_state 100 -1.62349 0
 spin1final_state 101 -1.12464 0
 spin1final_state 102 0.209363 0
 spin1final_state 103 0.220887 0
 spin1final_state 104 0.30546 0
 spin1final_state 105 0.561687 0
 spin1final_state 106 0.825007 0
 spin1final_state 107 0.98794 0
 spin1final_state 108 1.36409 0
 spin1final_state 109 1.42304 0
 spin1final_state 110 1.53156 0
 spin1final_state 111 1.79199 0
 spin1final_state 112 1.82564 0
 spin1final_state 113 3.09832 0
 spin1final_state 114 4.13882 0
 spin1final_state 115 4.32576 0
 spin1final_state 116 4.51994 0
 spin1final_state 117 4.61272 0

 k-points200(201): 0.133939 0.231656 0
 spin1final_state 1 -20.9581 0
 spin1final_state 2 -20.8965 0
 spin1final_state 3 -20.7396 0
 spin1final_state 4 -20.036 0
 spin1final_state 5 -19.9525 0
 spin1final_state 6 -19.7957 0
 spin1final_state 7 -19.1467 0
 spin1final_state 8 -19.1271 0
 spin1final_state 9 -19.0541 0
 spin1final_state 10 -18.9984 0
 spin1final_state 11 -18.9865 0
 spin1final_state 12 -18.465 0
 spin1final_state 13 -17.408 0
 spin1final_state 14 -17.2893 0
 spin1final_state 15 -17.2367 0
 spin1final_state 16 -17.2165 0
 spin1final_state 17 -17.1356 0
 spin1final_state 18 -16.8972 0
 spin1final_state 19 -16.4123 0
 spin1final_state 20 -16.3372 0
 spin1final_state 21 -16.1978 0
 spin1final_state 22 -15.9558 0
 spin1final_state 23 -15.905 0
 spin1final_state 24 -15.292 0
 spin1final_state 25 -14.8459 0
 spin1final_state 26 -14.8271 0
 spin1final_state 27 -14.6823 0
 spin1final_state 28 -14.244 0
 spin1final_state 29 -13.8316 0
 spin1final_state 30 -13.0421 0
 spin1final_state 31 -12.9541 0
 spin1final_state 32 -12.8835 0
 spin1final_state 33 -12.8454 0
 spin1final_state 34 -12.7884 0
 spin1final_state 35 -12.7773 0
 spin1final_state 36 -12.6234 0
 spin1final_state 37 -12.5648 0
 spin1final_state 38 -12.102 0
 spin1final_state 39 -11.472 0
 spin1final_state 40 -11.217 0
 spin1final_state 41 -11.0817 0
 spin1final_state 42 -10.9201 0
 spin1final_state 43 -10.6154 0
 spin1final_state 44 -10.5398 0
 spin1final_state 45 -10.4187 0
 spin1final_state 46 -10.2466 0
 spin1final_state 47 -10.2287 0
 spin1final_state 48 -9.49281 0
 spin1final_state 49 -9.33751 0
 spin1final_state 50 -9.16389 0
 spin1final_state 51 -9.15641 0
 spin1final_state 52 -9.04932 0
 spin1final_state 53 -9.01955 0
 spin1final_state 54 -8.95916 0
 spin1final_state 55 -8.84552 0
 spin1final_state 56 -8.7785 0
 spin1final_state 57 -8.75435 0
 spin1final_state 58 -8.55385 0
 spin1final_state 59 -8.4958 0
 spin1final_state 60 -8.37126 0
 spin1final_state 61 -8.20582 0
 spin1final_state 62 -8.03769 0
 spin1final_state 63 -7.9177 0
 spin1final_state 64 -7.8273 0
 spin1final_state 65 -7.75094 0
 spin1final_state 66 -7.68158 0
 spin1final_state 67 -7.66349 0
 spin1final_state 68 -7.65434 0
 spin1final_state 69 -7.60317 0
 spin1final_state 70 -7.43039 0
 spin1final_state 71 -7.29194 0
 spin1final_state 72 -7.18539 0
 spin1final_state 73 -6.87277 0
 spin1final_state 74 -6.85433 0
 spin1final_state 75 -6.78792 0
 spin1final_state 76 -6.73058 0
 spin1final_state 77 -6.72072 0
 spin1final_state 78 -6.55251 0
 spin1final_state 79 -6.40128 0
 spin1final_state 80 -6.38301 0
 spin1final_state 81 -6.21697 0
 spin1final_state 82 -5.82966 0
 spin1final_state 83 -5.59938 0
 spin1final_state 84 -5.52077 0
 spin1final_state 85 -5.40226 0
 spin1final_state 86 -4.94837 0
 spin1final_state 87 -4.85048 0
 spin1final_state 88 -4.78324 0
 spin1final_state 89 -4.77501 0
 spin1final_state 90 -4.7073 0
 spin1final_state 91 -4.45016 0
 spin1final_state 92 -3.94758 0
 spin1final_state 93 -3.93536 0
 spin1final_state 94 -3.92357 0
 spin1final_state 95 -3.85187 0
 spin1final_state 96 -3.71944 0
 spin1final_state 97 -2.58204 0
 spin1final_state 98 -1.7236 0
 spin1final_state 99 -1.65893 0
 spin1final_state 100 -1.58385 0
 spin1final_state 101 -1.17073 0
 spin1final_state 102 0.20124 0
 spin1final_state 103 0.212802 0
 spin1final_state 104 0.322708 0
 spin1final_state 105 0.621342 0
 spin1final_state 106 0.772152 0
 spin1final_state 107 0.971081 0
 spin1final_state 108 1.46067 0
 spin1final_state 109 1.49044 0
 spin1final_state 110 1.54982 0
 spin1final_state 111 1.69214 0
 spin1final_state 112 1.73305 0
 spin1final_state 113 3.1023 0
 spin1final_state 114 4.28848 0
 spin1final_state 115 4.39897 0
 spin1final_state 116 4.49733 0
 spin1final_state 117 4.5356 0

 k-points201(201): 0.135292 0.233996 0
 spin1final_state 1 -20.9543 0
 spin1final_state 2 -20.8994 0
 spin1final_state 3 -20.7426 0
 spin1final_state 4 -20.0146 0
 spin1final_state 5 -19.9676 0
 spin1final_state 6 -19.8038 0
 spin1final_state 7 -19.114 0
 spin1final_state 8 -19.0992 0
 spin1final_state 9 -19.0751 0
 spin1final_state 10 -19.0236 0
 spin1final_state 11 -19.0006 0
 spin1final_state 12 -18.4695 0
 spin1final_state 13 -17.319 0
 spin1final_state 14 -17.3074 0
 spin1final_state 15 -17.2833 0
 spin1final_state 16 -17.1932 0
 spin1final_state 17 -17.1732 0
 spin1final_state 18 -16.9082 0
 spin1final_state 19 -16.3714 0
 spin1final_state 20 -16.3527 0
 spin1final_state 21 -16.224 0
 spin1final_state 22 -15.9505 0
 spin1final_state 23 -15.897 0
 spin1final_state 24 -15.2929 0
 spin1final_state 25 -14.8413 0
 spin1final_state 26 -14.8361 0
 spin1final_state 27 -14.691 0
 spin1final_state 28 -14.2374 0
 spin1final_state 29 -13.8386 0
 spin1final_state 30 -12.931 0
 spin1final_state 31 -12.9175 0
 spin1final_state 32 -12.9067 0
 spin1final_state 33 -12.8592 0
 spin1final_state 34 -12.8558 0
 spin1final_state 35 -12.791 0
 spin1final_state 36 -12.6348 0
 spin1final_state 37 -12.5788 0
 spin1final_state 38 -12.1048 0
 spin1final_state 39 -11.4661 0
 spin1final_state 40 -11.2154 0
 spin1final_state 41 -11.0701 0
 spin1final_state 42 -10.9452 0
 spin1final_state 43 -10.5213 0
 spin1final_state 44 -10.5166 0
 spin1final_state 45 -10.5072 0
 spin1final_state 46 -10.2568 0
 spin1final_state 47 -10.2469 0
 spin1final_state 48 -9.49458 0
 spin1final_state 49 -9.2327 0
 spin1final_state 50 -9.21538 0
 spin1final_state 51 -9.20642 0
 spin1final_state 52 -9.03892 0
 spin1final_state 53 -9.01377 0
 spin1final_state 54 -8.96352 0
 spin1final_state 55 -8.83523 0
 spin1final_state 56 -8.78247 0
 spin1final_state 57 -8.7744 0
 spin1final_state 58 -8.52697 0
 spin1final_state 59 -8.48972 0
 spin1final_state 60 -8.39848 0
 spin1final_state 61 -8.19387 0
 spin1final_state 62 -8.04441 0
 spin1final_state 63 -7.88439 0
 spin1final_state 64 -7.85196 0
 spin1final_state 65 -7.73569 0
 spin1final_state 66 -7.67433 0
 spin1final_state 67 -7.6654 0
 spin1final_state 68 -7.64682 0
 spin1final_state 69 -7.64094 0
 spin1final_state 70 -7.42638 0
 spin1final_state 71 -7.26379 0
 spin1final_state 72 -7.22384 0
 spin1final_state 73 -6.82391 0
 spin1final_state 74 -6.81593 0
 spin1final_state 75 -6.80232 0
 spin1final_state 76 -6.7658 0
 spin1final_state 77 -6.75667 0
 spin1final_state 78 -6.51872 0
 spin1final_state 79 -6.41788 0
 spin1final_state 80 -6.39659 0
 spin1final_state 81 -6.22313 0
 spin1final_state 82 -5.82455 0
 spin1final_state 83 -5.5871 0
 spin1final_state 84 -5.5326 0
 spin1final_state 85 -5.40428 0
 spin1final_state 86 -4.85147 0
 spin1final_state 87 -4.83731 0
 spin1final_state 88 -4.82352 0
 spin1final_state 89 -4.80314 0
 spin1final_state 90 -4.73892 0
 spin1final_state 91 -4.45956 0
 spin1final_state 92 -3.94572 0
 spin1final_state 93 -3.92666 0
 spin1final_state 94 -3.90906 0
 spin1final_state 95 -3.82555 0
 spin1final_state 96 -3.76616 0
 spin1final_state 97 -2.58037 0
 spin1final_state 98 -1.72424 0
 spin1final_state 99 -1.65877 0
 spin1final_state 100 -1.56654 0
 spin1final_state 101 -1.19022 0
 spin1final_state 102 0.19797 0
 spin1final_state 103 0.210443 0
 spin1final_state 104 0.326313 0
 spin1final_state 105 0.656322 0
 spin1final_state 106 0.744354 0
 spin1final_state 107 0.96307 0
 spin1final_state 108 1.5424 0
 spin1final_state 109 1.54526 0
 spin1final_state 110 1.55721 0
 spin1final_state 111 1.57496 0
 spin1final_state 112 1.7029 0
 spin1final_state 113 3.10353 0
 spin1final_state 114 4.42599 0
 spin1final_state 115 4.43852 0
 spin1final_state 116 4.4399 0
 spin1final_state 117 4.48148 0



 --------------------------------------------
 !FINAL_ETOT_IS 0 eV
 --------------------------------------------






 >>>>>>>>>>>>>>>>>>>>>>>>>>>>>>>>>>>>>>>>>>>>>>>>>>>>>>>>>>>>>>>>>>>>>>
 |                                                                    |
 | Post-processing of data:                                           |
 | DOS (density of states) and bands will be output here.             |
 | If atomic orbitals are used, Mulliken charge analysis can be done. |
 | Also the .bxsf file containing fermi surface information can be    |
 | done here.                                                         |
 |                                                                    |
 <<<<<<<<<<<<<<<<<<<<<<<<<<<<<<<<<<<<<<<<<<<<<<<<<<<<<<<<<<<<<<<<<<<<<<





 Output bands in file: OUT.ABACUS/BANDS_1.dat




  |CLASS_NAME---------|NAME---------------|TIME(Sec)-----|CALLS----|AVG------|PER%-------
                                      total          70.32         5        14     1e+02%
                 Driver         driver_line         70.294         1        70     1e+02%
               PW_Basis  setup_struc_factor        0.12513         1      0.13      0.18%
            ORB_control      set_orb_tables         2.1765         1       2.2       3.1%
         ORB_gen_tables          gen_tables         2.1765         1       2.2       3.1%
          ORB_table_phi          init_Table         1.4855         1       1.5       2.1%
          ORB_table_phi      cal_ST_Phi12_R         1.4818        70     0.021       2.1%
         ORB_table_beta     init_Table_Beta        0.30749         1      0.31      0.44%
         ORB_table_beta       VNL_PhiBeta_R        0.30659        26     0.012      0.44%
              ppcell_vl           init_vloc          0.357         1      0.36      0.51%
        ESolver_KS_LCAO    othercalculation         67.362         1        67        96%
              Potential            init_pot        0.63284         1      0.63       0.9%
              Potential  update_from_charge        0.63283         1      0.63       0.9%
               PW_Basis          recip2real        0.24394         6     0.041      0.35%
               PW_Basis    gathers_scatterp        0.12275         6      0.02      0.17%
              Potential           cal_v_eff         0.5852         1      0.59      0.83%
               PW_Basis          real2recip        0.22231         6     0.037      0.32%
               PW_Basis    gatherp_scatters        0.12456         6     0.021      0.18%
                  PotXC           cal_v_eff        0.48244         1      0.48      0.69%
          XC_Functional                v_xc        0.47938         1      0.48      0.68%
            HSolverLCAO               solve         64.487         1        64        92%
             HamiltLCAO            updateHk         6.3604       201     0.032         9%
           OperatorLCAO                init         6.3596       603     0.011         9%
                   Veff        contributeHk         5.4579       201     0.027       7.8%
                 Gint_k        folding_vl_k         5.4575       201     0.027       7.8%
                 Gint_k              Distri         5.4571       201     0.027       7.8%
           OperatorLCAO       folding_fixed        0.82588       201    0.0041       1.2%
               LCAO_nnr      folding_fixedH        0.51333       201    0.0026      0.73%
            HSolverLCAO     hamiltSolvePsiK         30.801       201      0.15        44%
              DiagoElpa          elpa_solve         30.066       201      0.15        43%
      Local_Orbital_wfc      wfc_2d_to_grid         27.322       201      0.14        39%
               WF_Local  write_lowf_complex         26.987       201      0.13        38%
 ----------------------------------------------------------------------------------------

 CLASS_NAME---------|NAME---------------|MEMORY(MB)--------
                                         487.4
        ORB_table_phi               Jl(x)          107.2
        Grid_Meshcell        index2normal          3.876
    Local_Orbital_wfc                ctot          1.137
               Charge                 rho          1.099
               Charge            rho_save          1.099
               Charge            rho_core          1.099
            Potential   v_effective_fixed          1.099
            Potential              vr_eff          1.099
 ----------------------------------------------------------

 Start  Time  : Thu Nov 14 17:39:55 2024
 Finish Time  : Thu Nov 14 17:41:06 2024
 Total  Time  : 0 h 1 mins 11 secs 
