                                                                                     
                             WELCOME TO ABACUS v3.0                                  
                                                                                     
               'Atomic-orbital Based Ab-initio Computation at UStc'                  
                                                                                     
                     Website: http://abacus.ustc.edu.cn/                             
                                                                                     
    Version: Parallel, in development
    Processor Number is 16
    Start Time is Thu Nov 14 17:37:04 2024
                                                                                     
 ------------------------------------------------------------------------------------

 READING GENERAL INFORMATION
                           global_out_dir = OUT.ABACUS/
                           global_in_card = INPUT
                               pseudo_dir = 
                              orbital_dir = 
                                    DRANK = 1
                                    DSIZE = 16
                                   DCOLOR = 1
                                    GRANK = 1
                                    GSIZE = 1
 The esolver type has been set to : ksdft_lcao




 >>>>>>>>>>>>>>>>>>>>>>>>>>>>>>>>>>>>>>>>>>>>>>>>>>>>>>>>>>>>>>>>>>>>>>
 |                                                                    |
 | Reading atom information in unitcell:                              |
 | From the input file and the structure file we know the number of   |
 | different elments in this unitcell, then we list the detail        |
 | information for each element, especially the zeta and polar atomic |
 | orbital number for each element. The total atom number is counted. |
 | We calculate the nearest atom distance for each atom and show the  |
 | Cartesian and Direct coordinates for each atom. We list the file   |
 | address for atomic orbitals. The volume and the lattice vectors    |
 | in real and reciprocal space is also shown.                        |
 |                                                                    |
 <<<<<<<<<<<<<<<<<<<<<<<<<<<<<<<<<<<<<<<<<<<<<<<<<<<<<<<<<<<<<<<<<<<<<<




 READING UNITCELL INFORMATION
                                    ntype = 1
                 atom label for species 1 = C
                  lattice constant (Bohr) = 1.88973
              lattice constant (Angstrom) = 1

 READING ATOM TYPE 1
                               atom label = C
                      L=0, number of zeta = 2
                      L=1, number of zeta = 2
                      L=2, number of zeta = 1
             number of atom for this type = 49
                      start magnetization = FALSE
                      start magnetization = FALSE
                      start magnetization = FALSE
                      start magnetization = FALSE
                      start magnetization = FALSE
                      start magnetization = FALSE
                      start magnetization = FALSE
                      start magnetization = FALSE
                      start magnetization = FALSE
                      start magnetization = FALSE
                      start magnetization = FALSE
                      start magnetization = FALSE
                      start magnetization = FALSE
                      start magnetization = FALSE
                      start magnetization = FALSE
                      start magnetization = FALSE
                      start magnetization = FALSE
                      start magnetization = FALSE
                      start magnetization = FALSE
                      start magnetization = FALSE
                      start magnetization = FALSE
                      start magnetization = FALSE
                      start magnetization = FALSE
                      start magnetization = FALSE
                      start magnetization = FALSE
                      start magnetization = FALSE
                      start magnetization = FALSE
                      start magnetization = FALSE
                      start magnetization = FALSE
                      start magnetization = FALSE
                      start magnetization = FALSE
                      start magnetization = FALSE
                      start magnetization = FALSE
                      start magnetization = FALSE
                      start magnetization = FALSE
                      start magnetization = FALSE
                      start magnetization = FALSE
                      start magnetization = FALSE
                      start magnetization = FALSE
                      start magnetization = FALSE
                      start magnetization = FALSE
                      start magnetization = FALSE
                      start magnetization = FALSE
                      start magnetization = FALSE
                      start magnetization = FALSE
                      start magnetization = FALSE
                      start magnetization = FALSE
                      start magnetization = FALSE
                      start magnetization = FALSE

                        TOTAL ATOM NUMBER = 49

 DIRECT COORDINATES
         atom                   x                   y                   z                 mag                  vx                  vy                  vz
      taud_C1            0.133333            0.133333                 0.5                   0                   0                   0                   0
      taud_C2            0.333333            0.133333                 0.5                   0                   0                   0                   0
      taud_C3            0.533333            0.133333                 0.5                   0                   0                   0                   0
      taud_C4            0.733333            0.133333                 0.5                   0                   0                   0                   0
      taud_C5            0.933333            0.133333                 0.5                   0                   0                   0                   0
      taud_C6            0.133333            0.333333                 0.5                   0                   0                   0                   0
      taud_C7            0.333333            0.333333                 0.5                   0                   0                   0                   0
      taud_C8            0.533333            0.333333                 0.5                   0                   0                   0                   0
      taud_C9            0.733333            0.333333                 0.5                   0                   0                   0                   0
     taud_C10            0.133333            0.533333                 0.5                   0                   0                   0                   0
     taud_C11            0.333333            0.533333                 0.5                   0                   0                   0                   0
     taud_C12            0.533333            0.533333                 0.5                   0                   0                   0                   0
     taud_C13            0.733333            0.533333                 0.5                   0                   0                   0                   0
     taud_C14            0.933333            0.533333                 0.5                   0                   0                   0                   0
     taud_C15            0.133333            0.733333                 0.5                   0                   0                   0                   0
     taud_C16            0.333333            0.733333                 0.5                   0                   0                   0                   0
     taud_C17            0.533333            0.733333                 0.5                   0                   0                   0                   0
     taud_C18            0.733333            0.733333                 0.5                   0                   0                   0                   0
     taud_C19            0.933333            0.733333                 0.5                   0                   0                   0                   0
     taud_C20            0.133333            0.933333                 0.5                   0                   0                   0                   0
     taud_C21            0.333333            0.933333                 0.5                   0                   0                   0                   0
     taud_C22            0.533333            0.933333                 0.5                   0                   0                   0                   0
     taud_C23            0.733333            0.933333                 0.5                   0                   0                   0                   0
     taud_C24            0.933333            0.933333                 0.5                   0                   0                   0                   0
     taud_C25           0.0666667           0.0666667                 0.5                   0                   0                   0                   0
     taud_C26            0.266667           0.0666667                 0.5                   0                   0                   0                   0
     taud_C27            0.466667           0.0666667                 0.5                   0                   0                   0                   0
     taud_C28            0.666667           0.0666667                 0.5                   0                   0                   0                   0
     taud_C29            0.866667           0.0666667                 0.5                   0                   0                   0                   0
     taud_C30           0.0666667            0.266667                 0.5                   0                   0                   0                   0
     taud_C31            0.266667            0.266667                 0.5                   0                   0                   0                   0
     taud_C32            0.466667            0.266667                 0.5                   0                   0                   0                   0
     taud_C33            0.666667            0.266667                 0.5                   0                   0                   0                   0
     taud_C34            0.866667            0.266667                 0.5                   0                   0                   0                   0
     taud_C35           0.0666667            0.466667                 0.5                   0                   0                   0                   0
     taud_C36            0.266667            0.466667                 0.5                   0                   0                   0                   0
     taud_C37            0.466667            0.466667                 0.5                   0                   0                   0                   0
     taud_C38            0.666667            0.466667                 0.5                   0                   0                   0                   0
     taud_C39            0.866667            0.466667                 0.5                   0                   0                   0                   0
     taud_C40           0.0666667            0.666667                 0.5                   0                   0                   0                   0
     taud_C41            0.266667            0.666667                 0.5                   0                   0                   0                   0
     taud_C42            0.466667            0.666667                 0.5                   0                   0                   0                   0
     taud_C43            0.666667            0.666667                 0.5                   0                   0                   0                   0
     taud_C44            0.866667            0.666667                 0.5                   0                   0                   0                   0
     taud_C45           0.0666667            0.866667                 0.5                   0                   0                   0                   0
     taud_C46            0.266667            0.866667                 0.5                   0                   0                   0                   0
     taud_C47            0.466667            0.866667                 0.5                   0                   0                   0                   0
     taud_C48            0.666667            0.866667                 0.5                   0                   0                   0                   0
     taud_C49            0.866667            0.866667                 0.5                   0                   0                   0                   0


 READING ORBITAL FILE NAMES FOR LCAO
 orbital file: C_gga_6au_60Ry_2s2p1d.orb

                          Volume (Bohr^3) = 13754.8
                             Volume (A^3) = 2038.24

 Lattice vectors: (Cartesian coordinate: in unit of a_0)
             +12.3191                  +0                  +0
             +6.17281            +10.6763                  +0
                   +0                  +0            +15.4974
 Reciprocal vectors: (Cartesian coordinate: in unit of 2 pi/a_0)
           +0.0811751          -0.0469338                  +0
                   -0          +0.0936657                  -0
                   +0                  -0          +0.0645268




 >>>>>>>>>>>>>>>>>>>>>>>>>>>>>>>>>>>>>>>>>>>>>>>>>>>>>>>>>>>>>>>>>>>>>>
 |                                                                    |
 | Reading pseudopotentials files:                                    |
 | The pseudopotential file is in UPF format. The 'NC' indicates that |
 | the type of pseudopotential is 'norm conserving'. Functional of    |
 | exchange and correlation is decided by 4 given parameters in UPF   |
 | file.  We also read in the 'core correction' if there exists.      |
 | Also we can read the valence electrons number and the maximal      |
 | angular momentum used in this pseudopotential. We also read in the |
 | trail wave function, trail atomic density and local-pseudopotential|
 | on logrithmic grid. The non-local pseudopotential projector is also|
 | read in if there is any.                                           |
 |                                                                    |
 <<<<<<<<<<<<<<<<<<<<<<<<<<<<<<<<<<<<<<<<<<<<<<<<<<<<<<<<<<<<<<<<<<<<<<




                PAO radial cut off (Bohr) = 15

 Read in pseudopotential file is ./C_ONCV_PBE-1.2.upf
                     pseudopotential type = NC
          exchange-correlation functional = PBE
                 nonlocal core correction = 0
                        valence electrons = 4
                                     lmax = 1
                           number of zeta = 0
                     number of projectors = 4
                           L of projector = 0
                           L of projector = 0
                           L of projector = 1
                           L of projector = 1
     initial pseudo atomic orbital number = 0
                                   NLOCAL = 637




 >>>>>>>>>>>>>>>>>>>>>>>>>>>>>>>>>>>>>>>>>>>>>>>>>>>>>>>>>>>>>>>>>>>>>>
 |                                                                    |
 | Setup plane waves of charge/potential:                             |
 | Use the energy cutoff and the lattice vectors to generate the      |
 | dimensions of FFT grid. The number of FFT grid on each processor   |
 | is 'nrxx'. The number of plane wave basis in reciprocal space is   |
 | different for charege/potential and wave functions. We also set    |
 | the 'sticks' for the parallel of FFT. The number of plane waves    |
 | is 'npw' in each processor.                                        |
 <<<<<<<<<<<<<<<<<<<<<<<<<<<<<<<<<<<<<<<<<<<<<<<<<<<<<<<<<<<<<<<<<<<<<<





 SETUP THE PLANE WAVE BASIS
 energy cutoff for charge/potential (unit:Ry) = 240
          [fft grid for charge/potential] = 120, 120, 150
                      [fft grid division] = 2, 2, 2
      [big fft grid for charge/potential] = 60, 60, 75
                                     nbxx = 18000
                                     nrxx = 144000

 SETUP PLANE WAVES FOR CHARGE/POTENTIAL
                    number of plane waves = 863891
                         number of sticks = 8975

 PARALLEL PW FOR CHARGE/POTENTIAL
     PROC   COLUMNS(POT)             PW
        1            560          53992
        2            560          53992
        3            561          53995
        4            561          53995
        5            561          53991
        6            561          53991
        7            561          53995
        8            561          53995
        9            561          53993
       10            561          53993
       11            561          53993
       12            561          53993
       13            561          53993
       14            561          53993
       15            561          53995
       16            562          53992
 --------------- sum -------------------
       16           8975         863891
                            number of |g| = 26423
                                  max |g| = 21.7092
                                  min |g| = 0.00879218

 SETUP THE ELECTRONS NUMBER
             electron number of element C = 4
       total electron number of element C = 196
            AUTOSET number of electrons:  = 196
 DONE : SETUP UNITCELL Time : 0.127345 (SEC)





 >>>>>>>>>>>>>>>>>>>>>>>>>>>>>>>>>>>>>>>>>>>>>>>>>>>>>>>>>>>>>>>>>>>>>>
 |                                                                    |
 | Setup K-points                                                     |
 | We setup the k-points according to input parameters.               |
 | The reduced k-points are set according to symmetry operations.     |
 | We treat the spin as another set of k-points.                      |
 |                                                                    |
 <<<<<<<<<<<<<<<<<<<<<<<<<<<<<<<<<<<<<<<<<<<<<<<<<<<<<<<<<<<<<<<<<<<<<<





 SETUP K-POINTS
                                    nspin = 1
                   Input type of k points = Monkhorst-Pack(Gamma)
                                   nkstot = 16
                               nkstot_ibz = 10
      IBZ             DirectX             DirectY             DirectZ              Weight    ibz2bz
        1                   0                   0                   0              0.0625         0
        2                0.75                   0                   0               0.125         1
        3                 0.5                   0                   0              0.0625         2
        4                   0                0.75                   0               0.125         4
        5                0.75                0.75                   0               0.125         5
        6                 0.5                0.75                   0               0.125         6
        7                0.25                0.75                   0               0.125         7
        8                   0                 0.5                   0              0.0625         8
        9                0.75                 0.5                   0               0.125         9
       10                 0.5                 0.5                   0              0.0625        10
                               nkstot now = 10

  KPOINTS            DIRECT_X            DIRECT_Y            DIRECT_Z              WEIGHT
        1                   0                   0                   0              0.0625
        2                0.75                   0                   0               0.125
        3                 0.5                   0                   0              0.0625
        4                   0                0.75                   0               0.125
        5                0.75                0.75                   0               0.125
        6                 0.5                0.75                   0               0.125
        7                0.25                0.75                   0               0.125
        8                   0                 0.5                   0              0.0625
        9                0.75                 0.5                   0               0.125
       10                 0.5                 0.5                   0              0.0625

           k-point number in this process = 10
       minimum distributed K point number = 10

  KPOINTS         CARTESIAN_X         CARTESIAN_Y         CARTESIAN_Z              WEIGHT
        1                   0                   0                   0               0.125
        2           0.0608813          -0.0352004                   0                0.25
        3           0.0405875          -0.0234669                   0               0.125
        4                   0           0.0702493                   0                0.25
        5           0.0608813           0.0350489                   0                0.25
        6           0.0405875           0.0467823                   0                0.25
        7           0.0202938           0.0585158                   0                0.25
        8                   0           0.0468328                   0               0.125
        9           0.0608813           0.0116325                   0                0.25
       10           0.0405875           0.0233659                   0               0.125

  KPOINTS            DIRECT_X            DIRECT_Y            DIRECT_Z              WEIGHT
        1                   0                   0                   0               0.125
        2                0.75                   0                   0                0.25
        3                 0.5                   0                   0               0.125
        4                   0                0.75                   0                0.25
        5                0.75                0.75                   0                0.25
        6                 0.5                0.75                   0                0.25
        7                0.25                0.75                   0                0.25
        8                   0                 0.5                   0               0.125
        9                0.75                 0.5                   0                0.25
       10                 0.5                 0.5                   0               0.125
 DONE : INIT K-POINTS Time : 0.131769 (SEC)

                           occupied bands = 98
                                   NLOCAL = 637
                                   NBANDS = 117
                                   NBANDS = 117




 >>>>>>>>>>>>>>>>>>>>>>>>>>>>>>>>>>>>>>>>>>>>>>>>>>>>>>>>>>>>>>>>>>>>>>
 |                                                                    |
 | Setup numerical orbitals:                                          |
 | This part setup: numerical atomic orbitals, non-local projectors   |
 | and neutral potential (1D). The atomic orbitals information        |
 | including the radius, angular momentum and zeta number.            |
 | The neutral potential is the sum of local part of pseudopotential  |
 | and potential given by atomic charge, they will cancel out beyond  |
 | a certain radius cutoff, because the Z/r character.                |
 |                                                                    |
 <<<<<<<<<<<<<<<<<<<<<<<<<<<<<<<<<<<<<<<<<<<<<<<<<<<<<<<<<<<<<<<<<<<<<<





 SETUP ONE DIMENSIONAL ORBITALS/POTENTIAL
                        delta k  (1/Bohr) = 0.01
                        delta r    (Bohr) = 0.01
                        dr_uniform (Bohr) = 0.001
                        rmax       (Bohr) = 30
                                    kmesh = 779
      ORBITAL  L  N      nr      dr    RCUT  CHECK_UNIT    NEW_UNIT
            1  0  0     601    0.01       6           1           1
            2  0  1     601    0.01       6           1           1
            3  1  0     601    0.01       6           1           1
            4  1  1     601    0.01       6           1           1
            5  2  0     601    0.01       6           1           1
 SET NONLOCAL PSEUDOPOTENTIAL PROJECTORS
 max number of nonlocal projetors among all species is 4

 SETUP THE TWO-CENTER INTEGRATION TABLES

 SETUP THE DIVISION OF H/S MATRIX
 divide the H&S matrix using 2D block algorithms.
                                     nb2d = 32
                  trace_loc_row dimension = 637
                  trace_loc_col dimension = 637
                                     nloc = 25600




 >>>>>>>>>>>>>>>>>>>>>>>>>>>>>>>>>>>>>>>>>>>>>>>>>>>>>>>>>>>>>>>>>>>>>>
 |                                                                    |
 | Search adjacent atoms:                                             |
 | Set the adjacent atoms for each atom and set the periodic boundary |
 | condition for the atoms on real space FFT grid. For k-dependent    |
 | algorithm, we also need to set the sparse H and S matrix element   |
 | for each atom.                                                     |
 |                                                                    |
 <<<<<<<<<<<<<<<<<<<<<<<<<<<<<<<<<<<<<<<<<<<<<<<<<<<<<<<<<<<<<<<<<<<<<<





 SETUP SEARCHING RADIUS FOR PROGRAM TO SEARCH ADJACENT ATOMS
                  longest orb rcut (Bohr) = 6
   longest nonlocal projector rcut (Bohr) = 1.44
              searching radius is (Bohr)) = 14.9
         searching radius unit is (Bohr)) = 1.89

 SETUP EXTENDED REAL SPACE GRID FOR GRID INTEGRATION
                        [real space grid] = 120, 120, 150
               [big cell numbers in grid] = 60, 60, 75
           [meshcell numbers in big cell] = 2, 2, 2
                      [extended fft grid] = 18, 18, 16
              [dimension of extened grid] = 97, 97, 108
                            UnitCellTotal = 27
 No atoms on this sub-FFT-mesh.
              Atom number in sub-FFT-grid = 0
    Local orbitals number in sub-FFT-grid = 0
                                ParaV.nnr = 32022
                                     nnrg = 0
Successful completion of Potential's registration : local
Successful completion of Potential's registration : hartree
Successful completion of Potential's registration : xc
Successful completion of Potential's registration : tddft
 Memory of pvpR : 0 MB
                                nnrg_last = 0
                                 nnrg_now = 0
                                 init_chg = atomic
 DONE : INIT SCF Time : 3.9917 (SEC)


 LCAO ALGORITHM --------------- ION=   1  ELEC=   1--------------------------------

 Density error is 0.173471796761

       Energy                       Rydberg                            eV
   E_KohnSham                -556.202901754                -7567.52870799
     E_Harris                -559.159272417                -7607.75219441
      E_Fermi               -0.339584482897                -4.62028391978

 LCAO ALGORITHM --------------- ION=   1  ELEC=   2--------------------------------
 Memory of pvpR : 0 MB

 Density error is 0.0681064637093

       Energy                       Rydberg                            eV
   E_KohnSham                -552.567084285                -7518.06087352
     E_Harris                -558.340262606                -7596.60899426
      E_Fermi               -0.219293966263                 -2.9836474782

 LCAO ALGORITHM --------------- ION=   1  ELEC=   3--------------------------------
 Memory of pvpR : 0 MB

 Density error is 0.130248938803

       Energy                       Rydberg                            eV
   E_KohnSham                -550.613958104                -7491.48722855
     E_Harris                -562.320189868                -7650.75868265
      E_Fermi              -0.0846886955624                -1.15224881584

 LCAO ALGORITHM --------------- ION=   1  ELEC=   4--------------------------------
 Memory of pvpR : 0 MB

 Density error is 0.0766298998488

       Energy                       Rydberg                            eV
   E_KohnSham                -555.969504362                -7564.35317356
     E_Harris                -558.081794864                -7593.09236022
      E_Fermi               -0.177913290565                -2.42063450161

 LCAO ALGORITHM --------------- ION=   1  ELEC=   5--------------------------------
 Memory of pvpR : 0 MB

 Density error is 0.0209694965768

       Energy                       Rydberg                            eV
   E_KohnSham                -557.122935166                -7580.04640474
     E_Harris                -557.176759033                -7580.77871602
      E_Fermi               -0.082612973796                -1.12400717235

 LCAO ALGORITHM --------------- ION=   1  ELEC=   6--------------------------------
 Memory of pvpR : 0 MB

 Density error is 0.0135692619478

       Energy                       Rydberg                            eV
   E_KohnSham                -557.102562467                -7579.76921995
     E_Harris                 -557.13740026                -7580.24321245
      E_Fermi              -0.0871013900244                -1.18507520805

 LCAO ALGORITHM --------------- ION=   1  ELEC=   7--------------------------------
 Memory of pvpR : 0 MB

 Density error is 0.0119987230355

       Energy                       Rydberg                            eV
   E_KohnSham                -557.056803618                -7579.14663887
     E_Harris                -557.114698043                -7579.93433293
      E_Fermi               -0.100195751269                -1.36323313265

 LCAO ALGORITHM --------------- ION=   1  ELEC=   8--------------------------------
 Memory of pvpR : 0 MB

 Density error is 0.0054853595333

       Energy                       Rydberg                            eV
   E_KohnSham                -557.072703438                -7579.36296702
     E_Harris                -557.085397557                -7579.53567938
      E_Fermi               -0.128411702337                -1.74713084167

 LCAO ALGORITHM --------------- ION=   1  ELEC=   9--------------------------------
 Memory of pvpR : 0 MB

 Density error is 0.00303371099211

       Energy                       Rydberg                            eV
   E_KohnSham                -557.077502414                -7579.42826044
     E_Harris                 -557.08011154                -7579.46375942
      E_Fermi               -0.136535854405                 -1.8576656012

 LCAO ALGORITHM --------------- ION=   1  ELEC=  10--------------------------------
 Memory of pvpR : 0 MB

 Density error is 0.0015529062477

       Energy                       Rydberg                            eV
   E_KohnSham                 -557.07838808                -7579.44031054
     E_Harris                -557.079206804                -7579.45144985
      E_Fermi               -0.130992701953                -1.78224714297

 LCAO ALGORITHM --------------- ION=   1  ELEC=  11--------------------------------
 Memory of pvpR : 0 MB

 Density error is 0.00161324474314

       Energy                       Rydberg                            eV
   E_KohnSham                -557.078429882                -7579.44087929
     E_Harris                -557.079505105                -7579.45550845
      E_Fermi               -0.130217456526                -1.77169938781

 LCAO ALGORITHM --------------- ION=   1  ELEC=  12--------------------------------
 Memory of pvpR : 0 MB

 Density error is 0.00048124295453

       Energy                       Rydberg                            eV
   E_KohnSham                -557.078869557                -7579.44686137
     E_Harris                -557.078930862                -7579.44769548
      E_Fermi                -0.13040526772                -1.77425469021

 LCAO ALGORITHM --------------- ION=   1  ELEC=  13--------------------------------
 Memory of pvpR : 0 MB

 Density error is 0.000152773477533

       Energy                       Rydberg                            eV
   E_KohnSham                -557.078890637                -7579.44714818
     E_Harris                -557.078905266                -7579.44734722
      E_Fermi               -0.131283676126                 -1.7862060497

 LCAO ALGORITHM --------------- ION=   1  ELEC=  14--------------------------------
 Memory of pvpR : 0 MB

 Density error is 0.000289974581751

       Energy                       Rydberg                            eV
   E_KohnSham                -557.078878972                -7579.44698948
     E_Harris                -557.078917111                -7579.44750838
      E_Fermi               -0.130509377316                -1.77567117393

 LCAO ALGORITHM --------------- ION=   1  ELEC=  15--------------------------------
 Memory of pvpR : 0 MB

 Density error is 0.000116614514712

       Energy                       Rydberg                            eV
   E_KohnSham                -557.078899859                -7579.44727366
     E_Harris                -557.078904153                -7579.44733208
      E_Fermi                -0.13127372325                -1.78607063388

 LCAO ALGORITHM --------------- ION=   1  ELEC=  16--------------------------------
 Memory of pvpR : 0 MB

 Density error is 1.97623876636e-05

       Energy                       Rydberg                            eV
   E_KohnSham                -557.078901783                -7579.44729983
     E_Harris                 -557.07890199                -7579.44730265
      E_Fermi               -0.131063526599                -1.78321076172

 LCAO ALGORITHM --------------- ION=   1  ELEC=  17--------------------------------
 Memory of pvpR : 0 MB

 Density error is 2.2570636585e-05

       Energy                       Rydberg                            eV
   E_KohnSham                -557.078901862                -7579.44730091
     E_Harris                 -557.07890201                -7579.44730292
      E_Fermi               -0.131096912375                -1.78366499851

 LCAO ALGORITHM --------------- ION=   1  ELEC=  18--------------------------------
 Memory of pvpR : 0 MB

 Density error is 2.25369173241e-05

       Energy                       Rydberg                            eV
   E_KohnSham                -557.078901841                -7579.44730062
     E_Harris                   -557.078902                -7579.44730279
      E_Fermi                -0.13110741609                -1.78380790888

 LCAO ALGORITHM --------------- ION=   1  ELEC=  19--------------------------------
 Memory of pvpR : 0 MB

 Density error is 7.29719113327e-06

       Energy                       Rydberg                            eV
   E_KohnSham                -557.078901858                -7579.44730085
     E_Harris                -557.078901923                -7579.44730173
       E_band                -156.030581423                -2122.90496961
   E_one_elec                -3951.34160956                -53760.7606345
    E_Hartree                +2009.25343334                +27337.2954195
         E_xc                -171.478620941                -2333.08632998
      E_Ewald                +1556.49614326                +21177.2164634
      E_demet             -0.00824796440944                -0.11221931287
      E_descf                            +0                            +0
        E_exx                            +0                            +0
      E_Fermi               -0.131079014568                -1.78342148635

 charge density convergence is achieved
 final etot is -7579.44730085 eV

 STATE ENERGY(eV) AND OCCUPATIONS    NSPIN == 1
 1/10 kpoint (Cartesian) = 0 0 0 (0 pws)
       1       -21.1779       0.125000
       2       -20.3461       0.125000
       3       -20.3458       0.125000
       4       -20.2854       0.125000
       5       -20.2841       0.125000
       6       -20.2830       0.125000
       7       -19.7993       0.125000
       8       -18.5397       0.125000
       9       -18.4885       0.125000
      10       -18.4841       0.125000
      11       -18.3909       0.125000
      12       -18.3880       0.125000
      13       -18.0945       0.125000
      14       -17.6244       0.125000
      15       -17.6172       0.125000
      16       -17.5730       0.125000
      17       -17.4713       0.125000
      18       -17.4661       0.125000
      19       -16.6699       0.125000
      20       -15.4567       0.125000
      21       -15.4389       0.125000
      22       -15.4271       0.125000
      23       -15.3323       0.125000
      24       -15.3250       0.125000
      25       -14.8197       0.125000
      26       -14.4967       0.125000
      27       -14.4898       0.125000
      28       -14.4897       0.125000
      29       -14.2051       0.125000
      30       -14.2016       0.125000
      31       -13.7295       0.125000
      32       -13.1200       0.125000
      33       -13.1085       0.125000
      34       -13.1012       0.125000
      35       -12.8605       0.125000
      36       -12.8552       0.125000
      37       -11.8341       0.125000
      38       -10.7626       0.125000
      39       -10.7592       0.125000
      40       -10.7433       0.125000
      41       -10.6883       0.125000
      42       -10.6872       0.125000
      43       -10.6683       0.125000
      44       -10.6607       0.125000
      45       -10.6432       0.125000
      46       -10.6364       0.125000
      47       -10.1606       0.125000
      48       -10.1598       0.125000
      49       -9.44674       0.125000
      50       -9.29923       0.125000
      51       -9.28005       0.125000
      52       -9.27595       0.125000
      53       -9.27354       0.125000
      54       -8.88265       0.125000
      55       -8.87820       0.125000
      56       -8.58145       0.125000
      57       -8.27558       0.125000
      58       -8.27447       0.125000
      59       -8.23141       0.125000
      60       -8.22271       0.125000
      61       -8.22153       0.125000
      62       -8.03413       0.125000
      63       -8.01282       0.125000
      64       -8.00295       0.125000
      65       -7.99839       0.125000
      66       -7.97872       0.125000
      67       -7.97791       0.125000
      68       -7.92552       0.125000
      69       -7.91764       0.125000
      70       -7.90778       0.125000
      71       -7.72900       0.125000
      72       -6.94551       0.125000
      73       -6.93479       0.125000
      74       -6.36950       0.125000
      75       -6.34629       0.125000
      76       -6.31356       0.125000
      77       -6.30542       0.125000
      78       -6.14680       0.125000
      79       -6.09745       0.125000
      80       -6.09212       0.125000
      81       -6.05419       0.125000
      82       -6.05065       0.125000
      83       -5.88294       0.125000
      84       -5.74495       0.125000
      85       -5.20988       0.125000
      86       -5.20052       0.125000
      87       -5.17472       0.125000
      88       -5.14298       0.125000
      89       -5.13525       0.125000
      90       -5.13256       0.125000
      91       -5.12563       0.125000
      92       -4.32644       0.125000
      93       -3.18368       0.125000
      94       -3.18024       0.125000
      95       -3.16803       0.125000
      96       -3.11009       0.125000
      97       -3.10501       0.125000
      98       -1.94882       0.119652
      99       -1.61909     0.00547596
     100       -1.61284     0.00476319
     101      -0.261586        0.00000
     102      -0.253326        0.00000
     103      -0.252108        0.00000
     104      -0.170443        0.00000
     105      -0.163696        0.00000
     106       0.592361        0.00000
     107        1.74251        0.00000
     108        1.74510        0.00000
     109        1.76180        0.00000
     110        1.84232        0.00000
     111        1.84258        0.00000
     112        2.62785        0.00000
     113        3.45346        0.00000
     114        3.49330        0.00000
     115        3.49542        0.00000
     116        3.58619        0.00000
     117        3.59102        0.00000

 2/10 kpoint (Cartesian) = 0.0608813 -0.0352004 0.00000 (0 pws)
       1       -21.1250       0.250000
       2       -20.6724       0.250000
       3       -20.4906       0.250000
       4       -20.3455       0.250000
       5       -20.0248       0.250000
       6       -19.8971       0.250000
       7       -19.5994       0.250000
       8       -19.1102       0.250000
       9       -18.9154       0.250000
      10       -18.4087       0.250000
      11       -18.3918       0.250000
      12       -18.2257       0.250000
      13       -17.9429       0.250000
      14       -17.7997       0.250000
      15       -17.7477       0.250000
      16       -17.4268       0.250000
      17       -17.0610       0.250000
      18       -16.8689       0.250000
      19       -16.3870       0.250000
      20       -16.0602       0.250000
      21       -15.9706       0.250000
      22       -15.8940       0.250000
      23       -15.5268       0.250000
      24       -15.2499       0.250000
      25       -14.8534       0.250000
      26       -14.3643       0.250000
      27       -14.3444       0.250000
      28       -14.1230       0.250000
      29       -13.9222       0.250000
      30       -13.8613       0.250000
      31       -13.7817       0.250000
      32       -13.5259       0.250000
      33       -13.5130       0.250000
      34       -12.8450       0.250000
      35       -12.3505       0.250000
      36       -12.1020       0.250000
      37       -11.6731       0.250000
      38       -11.6366       0.250000
      39       -11.4579       0.250000
      40       -11.4378       0.250000
      41       -11.1656       0.250000
      42       -11.0034       0.250000
      43       -10.6456       0.250000
      44       -10.4099       0.250000
      45       -10.2211       0.250000
      46       -9.95947       0.250000
      47       -9.90543       0.250000
      48       -9.79411       0.250000
      49       -9.65477       0.250000
      50       -9.46902       0.250000
      51       -9.25620       0.250000
      52       -9.23353       0.250000
      53       -8.92579       0.250000
      54       -8.89581       0.250000
      55       -8.68415       0.250000
      56       -8.67910       0.250000
      57       -8.53192       0.250000
      58       -8.45779       0.250000
      59       -8.38889       0.250000
      60       -8.36553       0.250000
      61       -8.30592       0.250000
      62       -8.26216       0.250000
      63       -8.14253       0.250000
      64       -8.09782       0.250000
      65       -7.90432       0.250000
      66       -7.87359       0.250000
      67       -7.77159       0.250000
      68       -7.73378       0.250000
      69       -7.56453       0.250000
      70       -7.45662       0.250000
      71       -7.27718       0.250000
      72       -7.06059       0.250000
      73       -6.86304       0.250000
      74       -6.82491       0.250000
      75       -6.80723       0.250000
      76       -6.64758       0.250000
      77       -6.43523       0.250000
      78       -6.33103       0.250000
      79       -6.04145       0.250000
      80       -6.03033       0.250000
      81       -6.00355       0.250000
      82       -5.86553       0.250000
      83       -5.79175       0.250000
      84       -5.56534       0.250000
      85       -5.41667       0.250000
      86       -5.27858       0.250000
      87       -5.27337       0.250000
      88       -5.20804       0.250000
      89       -5.03088       0.250000
      90       -4.70538       0.250000
      91       -4.52381       0.250000
      92       -4.14370       0.250000
      93       -3.64582       0.250000
      94       -3.60228       0.250000
      95       -3.56525       0.250000
      96       -3.07440       0.250000
      97       -2.79451       0.250000
      98       -1.96132       0.241944
      99       -1.66682      0.0281913
     100       -1.63159      0.0143166
     101      -0.452198        0.00000
     102      -0.290812        0.00000
     103       0.147275        0.00000
     104       0.195490        0.00000
     105       0.217554        0.00000
     106       0.549078        0.00000
     107       0.893046        0.00000
     108        1.17769        0.00000
     109        1.61546        0.00000
     110        2.33412        0.00000
     111        2.41178        0.00000
     112        2.43068        0.00000
     113        2.88727        0.00000
     114        3.23441        0.00000
     115        3.38977        0.00000
     116        4.19637        0.00000
     117        4.61126        0.00000

 3/10 kpoint (Cartesian) = 0.0405875 -0.0234669 0.00000 (0 pws)
       1       -21.0090       0.125000
       2       -20.8946       0.125000
       3       -20.5477       0.125000
       4       -20.3809       0.125000
       5       -19.6456       0.125000
       6       -19.6005       0.125000
       7       -19.5799       0.125000
       8       -19.3851       0.125000
       9       -19.1093       0.125000
      10       -18.9024       0.125000
      11       -18.2739       0.125000
      12       -18.2456       0.125000
      13       -18.1623       0.125000
      14       -17.8170       0.125000
      15       -16.9468       0.125000
      16       -16.9310       0.125000
      17       -16.8036       0.125000
      18       -16.7513       0.125000
      19       -16.5271       0.125000
      20       -16.4682       0.125000
      21       -16.4386       0.125000
      22       -16.1290       0.125000
      23       -15.6154       0.125000
      24       -15.2467       0.125000
      25       -15.0644       0.125000
      26       -14.6460       0.125000
      27       -14.1493       0.125000
      28       -14.1272       0.125000
      29       -13.9274       0.125000
      30       -13.8517       0.125000
      31       -13.5160       0.125000
      32       -13.1185       0.125000
      33       -12.7342       0.125000
      34       -12.7181       0.125000
      35       -12.5066       0.125000
      36       -12.1869       0.125000
      37       -11.9453       0.125000
      38       -11.8554       0.125000
      39       -11.7395       0.125000
      40       -11.5518       0.125000
      41       -11.5227       0.125000
      42       -10.9185       0.125000
      43       -10.4454       0.125000
      44       -10.3664       0.125000
      45       -10.3479       0.125000
      46       -10.2628       0.125000
      47       -9.97601       0.125000
      48       -9.74368       0.125000
      49       -9.26903       0.125000
      50       -9.22756       0.125000
      51       -9.10830       0.125000
      52       -9.08567       0.125000
      53       -8.96040       0.125000
      54       -8.94487       0.125000
      55       -8.90461       0.125000
      56       -8.72534       0.125000
      57       -8.68328       0.125000
      58       -8.52665       0.125000
      59       -8.50996       0.125000
      60       -8.43179       0.125000
      61       -8.35530       0.125000
      62       -8.35467       0.125000
      63       -7.98761       0.125000
      64       -7.95890       0.125000
      65       -7.62916       0.125000
      66       -7.51740       0.125000
      67       -7.44542       0.125000
      68       -7.44088       0.125000
      69       -7.41567       0.125000
      70       -7.39830       0.125000
      71       -7.33912       0.125000
      72       -7.30054       0.125000
      73       -7.19985       0.125000
      74       -7.18380       0.125000
      75       -6.86269       0.125000
      76       -6.80754       0.125000
      77       -6.64548       0.125000
      78       -6.31842       0.125000
      79       -6.15237       0.125000
      80       -5.94982       0.125000
      81       -5.87945       0.125000
      82       -5.86828       0.125000
      83       -5.82635       0.125000
      84       -5.82631       0.125000
      85       -5.45489       0.125000
      86       -5.40297       0.125000
      87       -5.31081       0.125000
      88       -4.41759       0.125000
      89       -4.38198       0.125000
      90       -4.34580       0.125000
      91       -4.29600       0.125000
      92       -4.19841       0.125000
      93       -4.17486       0.125000
      94       -4.15801       0.125000
      95       -4.05082       0.125000
      96       -3.13112       0.125000
      97       -2.66078       0.125000
      98       -1.94929       0.119707
      99       -1.72230      0.0328267
     100       -1.64412     0.00922727
     101      -0.536524        0.00000
     102      -0.312517        0.00000
     103       0.274516        0.00000
     104       0.569741        0.00000
     105       0.588796        0.00000
     106       0.667489        0.00000
     107       0.906971        0.00000
     108        1.18356        0.00000
     109        1.23301        0.00000
     110        1.28234        0.00000
     111        2.19929        0.00000
     112        2.94318        0.00000
     113        2.95136        0.00000
     114        3.02597        0.00000
     115        3.96300        0.00000
     116        4.58695        0.00000
     117        5.00900        0.00000

 4/10 kpoint (Cartesian) = 0.00000 0.0702493 0.00000 (0 pws)
       1       -21.1251       0.250000
       2       -20.6735       0.250000
       3       -20.4899       0.250000
       4       -20.3434       0.250000
       5       -20.0250       0.250000
       6       -19.8978       0.250000
       7       -19.6009       0.250000
       8       -19.1124       0.250000
       9       -18.9166       0.250000
      10       -18.4104       0.250000
      11       -18.3855       0.250000
      12       -18.2237       0.250000
      13       -17.9378       0.250000
      14       -17.7987       0.250000
      15       -17.7528       0.250000
      16       -17.4272       0.250000
      17       -17.0574       0.250000
      18       -16.8726       0.250000
      19       -16.3942       0.250000
      20       -16.0722       0.250000
      21       -15.9753       0.250000
      22       -15.8892       0.250000
      23       -15.5204       0.250000
      24       -15.2349       0.250000
      25       -14.8487       0.250000
      26       -14.3607       0.250000
      27       -14.3422       0.250000
      28       -14.1295       0.250000
      29       -13.9312       0.250000
      30       -13.8641       0.250000
      31       -13.7838       0.250000
      32       -13.5246       0.250000
      33       -13.5084       0.250000
      34       -12.8443       0.250000
      35       -12.3480       0.250000
      36       -12.1054       0.250000
      37       -11.6757       0.250000
      38       -11.6402       0.250000
      39       -11.4618       0.250000
      40       -11.4428       0.250000
      41       -11.1685       0.250000
      42       -11.0073       0.250000
      43       -10.6363       0.250000
      44       -10.3969       0.250000
      45       -10.2151       0.250000
      46       -9.95026       0.250000
      47       -9.90091       0.250000
      48       -9.79801       0.250000
      49       -9.66166       0.250000
      50       -9.46800       0.250000
      51       -9.26079       0.250000
      52       -9.23366       0.250000
      53       -8.92903       0.250000
      54       -8.89415       0.250000
      55       -8.68553       0.250000
      56       -8.67787       0.250000
      57       -8.52540       0.250000
      58       -8.45650       0.250000
      59       -8.39814       0.250000
      60       -8.37228       0.250000
      61       -8.30355       0.250000
      62       -8.26164       0.250000
      63       -8.15329       0.250000
      64       -8.09736       0.250000
      65       -7.90433       0.250000
      66       -7.86178       0.250000
      67       -7.77219       0.250000
      68       -7.73590       0.250000
      69       -7.55474       0.250000
      70       -7.45915       0.250000
      71       -7.28433       0.250000
      72       -7.05124       0.250000
      73       -6.87171       0.250000
      74       -6.82751       0.250000
      75       -6.81040       0.250000
      76       -6.64909       0.250000
      77       -6.43983       0.250000
      78       -6.32981       0.250000
      79       -6.04511       0.250000
      80       -6.02269       0.250000
      81       -5.99594       0.250000
      82       -5.86247       0.250000
      83       -5.79464       0.250000
      84       -5.55863       0.250000
      85       -5.41370       0.250000
      86       -5.28544       0.250000
      87       -5.27838       0.250000
      88       -5.20141       0.250000
      89       -5.03244       0.250000
      90       -4.69988       0.250000
      91       -4.52839       0.250000
      92       -4.15055       0.250000
      93       -3.64159       0.250000
      94       -3.60351       0.250000
      95       -3.57899       0.250000
      96       -3.07090       0.250000
      97       -2.78240       0.250000
      98       -1.95736       0.241172
      99       -1.67172      0.0307008
     100       -1.62645      0.0128453
     101      -0.462154        0.00000
     102      -0.298018        0.00000
     103       0.146419        0.00000
     104       0.198008        0.00000
     105       0.222869        0.00000
     106       0.550803        0.00000
     107       0.895778        0.00000
     108        1.17945        0.00000
     109        1.61658        0.00000
     110        2.33551        0.00000
     111        2.41345        0.00000
     112        2.43038        0.00000
     113        2.88549        0.00000
     114        3.23091        0.00000
     115        3.38531        0.00000
     116        4.19699        0.00000
     117        4.61323        0.00000

 5/10 kpoint (Cartesian) = 0.0608813 0.0350489 0.00000 (0 pws)
       1       -21.1251       0.250000
       2       -20.6735       0.250000
       3       -20.4899       0.250000
       4       -20.3433       0.250000
       5       -20.0250       0.250000
       6       -19.8978       0.250000
       7       -19.6009       0.250000
       8       -19.1124       0.250000
       9       -18.9166       0.250000
      10       -18.4104       0.250000
      11       -18.3855       0.250000
      12       -18.2237       0.250000
      13       -17.9378       0.250000
      14       -17.7987       0.250000
      15       -17.7528       0.250000
      16       -17.4272       0.250000
      17       -17.0574       0.250000
      18       -16.8726       0.250000
      19       -16.3942       0.250000
      20       -16.0722       0.250000
      21       -15.9753       0.250000
      22       -15.8892       0.250000
      23       -15.5204       0.250000
      24       -15.2349       0.250000
      25       -14.8486       0.250000
      26       -14.3607       0.250000
      27       -14.3422       0.250000
      28       -14.1295       0.250000
      29       -13.9312       0.250000
      30       -13.8641       0.250000
      31       -13.7838       0.250000
      32       -13.5246       0.250000
      33       -13.5084       0.250000
      34       -12.8443       0.250000
      35       -12.3480       0.250000
      36       -12.1054       0.250000
      37       -11.6757       0.250000
      38       -11.6403       0.250000
      39       -11.4618       0.250000
      40       -11.4428       0.250000
      41       -11.1685       0.250000
      42       -11.0073       0.250000
      43       -10.6363       0.250000
      44       -10.3969       0.250000
      45       -10.2151       0.250000
      46       -9.95026       0.250000
      47       -9.90091       0.250000
      48       -9.79801       0.250000
      49       -9.66166       0.250000
      50       -9.46800       0.250000
      51       -9.26079       0.250000
      52       -9.23366       0.250000
      53       -8.92904       0.250000
      54       -8.89416       0.250000
      55       -8.68553       0.250000
      56       -8.67787       0.250000
      57       -8.52539       0.250000
      58       -8.45650       0.250000
      59       -8.39815       0.250000
      60       -8.37228       0.250000
      61       -8.30354       0.250000
      62       -8.26164       0.250000
      63       -8.15329       0.250000
      64       -8.09736       0.250000
      65       -7.90433       0.250000
      66       -7.86178       0.250000
      67       -7.77219       0.250000
      68       -7.73591       0.250000
      69       -7.55474       0.250000
      70       -7.45915       0.250000
      71       -7.28432       0.250000
      72       -7.05123       0.250000
      73       -6.87172       0.250000
      74       -6.82752       0.250000
      75       -6.81040       0.250000
      76       -6.64909       0.250000
      77       -6.43984       0.250000
      78       -6.32982       0.250000
      79       -6.04511       0.250000
      80       -6.02269       0.250000
      81       -5.99594       0.250000
      82       -5.86247       0.250000
      83       -5.79464       0.250000
      84       -5.55864       0.250000
      85       -5.41369       0.250000
      86       -5.28544       0.250000
      87       -5.27838       0.250000
      88       -5.20141       0.250000
      89       -5.03244       0.250000
      90       -4.69988       0.250000
      91       -4.52838       0.250000
      92       -4.15054       0.250000
      93       -3.64159       0.250000
      94       -3.60350       0.250000
      95       -3.57899       0.250000
      96       -3.07091       0.250000
      97       -2.78240       0.250000
      98       -1.95734       0.241169
      99       -1.67165      0.0306654
     100       -1.62652      0.0128635
     101      -0.462155        0.00000
     102      -0.298027        0.00000
     103       0.146417        0.00000
     104       0.198009        0.00000
     105       0.222863        0.00000
     106       0.550807        0.00000
     107       0.895789        0.00000
     108        1.17945        0.00000
     109        1.61658        0.00000
     110        2.33551        0.00000
     111        2.41346        0.00000
     112        2.43038        0.00000
     113        2.88549        0.00000
     114        3.23091        0.00000
     115        3.38530        0.00000
     116        4.19699        0.00000
     117        4.61322        0.00000

 6/10 kpoint (Cartesian) = 0.0405875 0.0467823 0.00000 (0 pws)
       1       -21.0252       0.250000
       2       -20.8273       0.250000
       3       -20.6915       0.250000
       4       -20.1282       0.250000
       5       -20.0071       0.250000
       6       -19.6116       0.250000
       7       -19.4442       0.250000
       8       -19.2687       0.250000
       9       -18.9484       0.250000
      10       -18.8859       0.250000
      11       -18.7477       0.250000
      12       -18.3753       0.250000
      13       -17.6121       0.250000
      14       -17.5612       0.250000
      15       -17.3392       0.250000
      16       -17.2373       0.250000
      17       -16.8264       0.250000
      18       -16.7767       0.250000
      19       -16.5663       0.250000
      20       -16.2091       0.250000
      21       -16.1149       0.250000
      22       -16.0692       0.250000
      23       -15.9156       0.250000
      24       -15.2830       0.250000
      25       -14.7771       0.250000
      26       -14.6980       0.250000
      27       -14.5816       0.250000
      28       -14.2784       0.250000
      29       -13.8042       0.250000
      30       -13.3964       0.250000
      31       -13.3228       0.250000
      32       -13.1011       0.250000
      33       -13.0135       0.250000
      34       -12.8312       0.250000
      35       -12.3972       0.250000
      36       -12.3195       0.250000
      37       -12.2185       0.250000
      38       -12.0645       0.250000
      39       -11.5143       0.250000
      40       -11.2204       0.250000
      41       -11.1292       0.250000
      42       -11.0839       0.250000
      43       -10.7093       0.250000
      44       -10.6269       0.250000
      45       -10.3476       0.250000
      46       -10.0876       0.250000
      47       -9.82925       0.250000
      48       -9.56634       0.250000
      49       -9.49971       0.250000
      50       -9.36180       0.250000
      51       -9.12360       0.250000
      52       -9.10865       0.250000
      53       -9.02114       0.250000
      54       -8.93946       0.250000
      55       -8.87004       0.250000
      56       -8.71704       0.250000
      57       -8.71553       0.250000
      58       -8.52239       0.250000
      59       -8.39394       0.250000
      60       -8.32250       0.250000
      61       -8.23957       0.250000
      62       -8.02973       0.250000
      63       -8.01700       0.250000
      64       -7.97737       0.250000
      65       -7.90354       0.250000
      66       -7.81397       0.250000
      67       -7.72120       0.250000
      68       -7.45142       0.250000
      69       -7.43010       0.250000
      70       -7.42987       0.250000
      71       -7.22726       0.250000
      72       -7.18674       0.250000
      73       -7.04838       0.250000
      74       -6.97314       0.250000
      75       -6.74451       0.250000
      76       -6.66902       0.250000
      77       -6.59420       0.250000
      78       -6.53610       0.250000
      79       -6.42926       0.250000
      80       -6.15449       0.250000
      81       -6.10048       0.250000
      82       -5.95723       0.250000
      83       -5.66899       0.250000
      84       -5.42835       0.250000
      85       -5.34885       0.250000
      86       -5.15803       0.250000
      87       -5.11453       0.250000
      88       -4.95670       0.250000
      89       -4.77532       0.250000
      90       -4.37160       0.250000
      91       -4.30951       0.250000
      92       -4.19798       0.250000
      93       -4.07089       0.250000
      94       -3.87927       0.250000
      95       -3.69342       0.250000
      96       -3.50449       0.250000
      97       -2.60934       0.250000
      98       -1.75799      0.0989413
      99       -1.71486      0.0595056
     100       -1.65114      0.0211437
     101      -0.953883        0.00000
     102       0.174012        0.00000
     103       0.307561        0.00000
     104       0.322099        0.00000
     105       0.403189        0.00000
     106       0.643331        0.00000
     107       0.935522        0.00000
     108        1.20682        0.00000
     109        1.47029        0.00000
     110        1.69401        0.00000
     111        1.90603        0.00000
     112        2.13530        0.00000
     113        3.06655        0.00000
     114        3.79374        0.00000
     115        4.04234        0.00000
     116        4.34903        0.00000
     117        4.85880        0.00000

 7/10 kpoint (Cartesian) = 0.0202938 0.0585158 0.00000 (0 pws)
       1       -21.0252       0.250000
       2       -20.8273       0.250000
       3       -20.6915       0.250000
       4       -20.1282       0.250000
       5       -20.0071       0.250000
       6       -19.6116       0.250000
       7       -19.4442       0.250000
       8       -19.2687       0.250000
       9       -18.9484       0.250000
      10       -18.8859       0.250000
      11       -18.7477       0.250000
      12       -18.3753       0.250000
      13       -17.6121       0.250000
      14       -17.5612       0.250000
      15       -17.3392       0.250000
      16       -17.2373       0.250000
      17       -16.8264       0.250000
      18       -16.7767       0.250000
      19       -16.5663       0.250000
      20       -16.2091       0.250000
      21       -16.1150       0.250000
      22       -16.0692       0.250000
      23       -15.9156       0.250000
      24       -15.2830       0.250000
      25       -14.7771       0.250000
      26       -14.6980       0.250000
      27       -14.5816       0.250000
      28       -14.2784       0.250000
      29       -13.8042       0.250000
      30       -13.3964       0.250000
      31       -13.3228       0.250000
      32       -13.1011       0.250000
      33       -13.0135       0.250000
      34       -12.8312       0.250000
      35       -12.3972       0.250000
      36       -12.3195       0.250000
      37       -12.2185       0.250000
      38       -12.0645       0.250000
      39       -11.5143       0.250000
      40       -11.2204       0.250000
      41       -11.1292       0.250000
      42       -11.0839       0.250000
      43       -10.7093       0.250000
      44       -10.6270       0.250000
      45       -10.3476       0.250000
      46       -10.0876       0.250000
      47       -9.82923       0.250000
      48       -9.56635       0.250000
      49       -9.49971       0.250000
      50       -9.36180       0.250000
      51       -9.12360       0.250000
      52       -9.10865       0.250000
      53       -9.02114       0.250000
      54       -8.93945       0.250000
      55       -8.87004       0.250000
      56       -8.71705       0.250000
      57       -8.71552       0.250000
      58       -8.52238       0.250000
      59       -8.39394       0.250000
      60       -8.32250       0.250000
      61       -8.23958       0.250000
      62       -8.02972       0.250000
      63       -8.01700       0.250000
      64       -7.97737       0.250000
      65       -7.90355       0.250000
      66       -7.81397       0.250000
      67       -7.72120       0.250000
      68       -7.45142       0.250000
      69       -7.43012       0.250000
      70       -7.42987       0.250000
      71       -7.22726       0.250000
      72       -7.18674       0.250000
      73       -7.04838       0.250000
      74       -6.97313       0.250000
      75       -6.74452       0.250000
      76       -6.66902       0.250000
      77       -6.59420       0.250000
      78       -6.53611       0.250000
      79       -6.42926       0.250000
      80       -6.15448       0.250000
      81       -6.10048       0.250000
      82       -5.95722       0.250000
      83       -5.66899       0.250000
      84       -5.42835       0.250000
      85       -5.34886       0.250000
      86       -5.15802       0.250000
      87       -5.11453       0.250000
      88       -4.95669       0.250000
      89       -4.77534       0.250000
      90       -4.37160       0.250000
      91       -4.30952       0.250000
      92       -4.19798       0.250000
      93       -4.07089       0.250000
      94       -3.87927       0.250000
      95       -3.69342       0.250000
      96       -3.50448       0.250000
      97       -2.60934       0.250000
      98       -1.75801      0.0989600
      99       -1.71491      0.0595446
     100       -1.65109      0.0211244
     101      -0.953875        0.00000
     102       0.174015        0.00000
     103       0.307561        0.00000
     104       0.322099        0.00000
     105       0.403197        0.00000
     106       0.643330        0.00000
     107       0.935525        0.00000
     108        1.20681        0.00000
     109        1.47028        0.00000
     110        1.69402        0.00000
     111        1.90602        0.00000
     112        2.13530        0.00000
     113        3.06654        0.00000
     114        3.79375        0.00000
     115        4.04233        0.00000
     116        4.34904        0.00000
     117        4.85880        0.00000

 8/10 kpoint (Cartesian) = 0.00000 0.0468328 0.00000 (0 pws)
       1       -21.0091       0.125000
       2       -20.8956       0.125000
       3       -20.5468       0.125000
       4       -20.3786       0.125000
       5       -19.6466       0.125000
       6       -19.6019       0.125000
       7       -19.5791       0.125000
       8       -19.3870       0.125000
       9       -19.1134       0.125000
      10       -18.9058       0.125000
      11       -18.2677       0.125000
      12       -18.2393       0.125000
      13       -18.1565       0.125000
      14       -17.8133       0.125000
      15       -16.9554       0.125000
      16       -16.9385       0.125000
      17       -16.8100       0.125000
      18       -16.7552       0.125000
      19       -16.5238       0.125000
      20       -16.4666       0.125000
      21       -16.4341       0.125000
      22       -16.1422       0.125000
      23       -15.6152       0.125000
      24       -15.2310       0.125000
      25       -15.0587       0.125000
      26       -14.6423       0.125000
      27       -14.1426       0.125000
      28       -14.1198       0.125000
      29       -13.9231       0.125000
      30       -13.8564       0.125000
      31       -13.5304       0.125000
      32       -13.1237       0.125000
      33       -12.7387       0.125000
      34       -12.7225       0.125000
      35       -12.5087       0.125000
      36       -12.1899       0.125000
      37       -11.9443       0.125000
      38       -11.8550       0.125000
      39       -11.7395       0.125000
      40       -11.5535       0.125000
      41       -11.5228       0.125000
      42       -10.9238       0.125000
      43       -10.4510       0.125000
      44       -10.3545       0.125000
      45       -10.3350       0.125000
      46       -10.2689       0.125000
      47       -9.96408       0.125000
      48       -9.73755       0.125000
      49       -9.25773       0.125000
      50       -9.21865       0.125000
      51       -9.10473       0.125000
      52       -9.08593       0.125000
      53       -8.96144       0.125000
      54       -8.95588       0.125000
      55       -8.91460       0.125000
      56       -8.73150       0.125000
      57       -8.68985       0.125000
      58       -8.52519       0.125000
      59       -8.51409       0.125000
      60       -8.43419       0.125000
      61       -8.35212       0.125000
      62       -8.35036       0.125000
      63       -7.97981       0.125000
      64       -7.96690       0.125000
      65       -7.63574       0.125000
      66       -7.52995       0.125000
      67       -7.44613       0.125000
      68       -7.44201       0.125000
      69       -7.41706       0.125000
      70       -7.39744       0.125000
      71       -7.31939       0.125000
      72       -7.30676       0.125000
      73       -7.19521       0.125000
      74       -7.18574       0.125000
      75       -6.86853       0.125000
      76       -6.81087       0.125000
      77       -6.65042       0.125000
      78       -6.31603       0.125000
      79       -6.15861       0.125000
      80       -5.95407       0.125000
      81       -5.87166       0.125000
      82       -5.86078       0.125000
      83       -5.81986       0.125000
      84       -5.81933       0.125000
      85       -5.44939       0.125000
      86       -5.40756       0.125000
      87       -5.30202       0.125000
      88       -4.42826       0.125000
      89       -4.39158       0.125000
      90       -4.35342       0.125000
      91       -4.30051       0.125000
      92       -4.19581       0.125000
      93       -4.16689       0.125000
      94       -4.15256       0.125000
      95       -4.06489       0.125000
      96       -3.12732       0.125000
      97       -2.64673       0.125000
      98       -1.94288       0.118911
      99       -1.72712      0.0349000
     100       -1.63879     0.00829655
     101      -0.549025        0.00000
     102      -0.322239        0.00000
     103       0.277826        0.00000
     104       0.570768        0.00000
     105       0.590777        0.00000
     106       0.668542        0.00000
     107       0.908400        0.00000
     108        1.18596        0.00000
     109        1.23560        0.00000
     110        1.28710        0.00000
     111        2.20095        0.00000
     112        2.94178        0.00000
     113        2.94967        0.00000
     114        3.02217        0.00000
     115        3.95887        0.00000
     116        4.58214        0.00000
     117        5.00791        0.00000

 9/10 kpoint (Cartesian) = 0.0608813 0.0116325 0.00000 (0 pws)
       1       -21.0253       0.250000
       2       -20.8277       0.250000
       3       -20.6911       0.250000
       4       -20.1272       0.250000
       5       -20.0049       0.250000
       6       -19.6149       0.250000
       7       -19.4477       0.250000
       8       -19.2700       0.250000
       9       -18.9445       0.250000
      10       -18.8835       0.250000
      11       -18.7499       0.250000
      12       -18.3747       0.250000
      13       -17.6106       0.250000
      14       -17.5580       0.250000
      15       -17.3311       0.250000
      16       -17.2352       0.250000
      17       -16.8349       0.250000
      18       -16.7869       0.250000
      19       -16.5728       0.250000
      20       -16.2185       0.250000
      21       -16.1164       0.250000
      22       -16.0654       0.250000
      23       -15.9012       0.250000
      24       -15.2784       0.250000
      25       -14.7771       0.250000
      26       -14.6953       0.250000
      27       -14.5759       0.250000
      28       -14.2806       0.250000
      29       -13.8100       0.250000
      30       -13.3923       0.250000
      31       -13.3236       0.250000
      32       -13.1080       0.250000
      33       -13.0123       0.250000
      34       -12.8250       0.250000
      35       -12.3982       0.250000
      36       -12.3201       0.250000
      37       -12.2279       0.250000
      38       -12.0669       0.250000
      39       -11.5148       0.250000
      40       -11.2210       0.250000
      41       -11.1312       0.250000
      42       -11.0823       0.250000
      43       -10.7061       0.250000
      44       -10.6285       0.250000
      45       -10.3397       0.250000
      46       -10.0852       0.250000
      47       -9.83191       0.250000
      48       -9.56135       0.250000
      49       -9.49278       0.250000
      50       -9.35339       0.250000
      51       -9.11858       0.250000
      52       -9.10895       0.250000
      53       -9.01740       0.250000
      54       -8.95212       0.250000
      55       -8.87031       0.250000
      56       -8.73585       0.250000
      57       -8.71662       0.250000
      58       -8.52599       0.250000
      59       -8.39461       0.250000
      60       -8.31498       0.250000
      61       -8.23744       0.250000
      62       -8.03185       0.250000
      63       -8.02803       0.250000
      64       -7.97464       0.250000
      65       -7.90108       0.250000
      66       -7.80650       0.250000
      67       -7.72005       0.250000
      68       -7.44628       0.250000
      69       -7.43406       0.250000
      70       -7.42709       0.250000
      71       -7.23161       0.250000
      72       -7.18649       0.250000
      73       -7.05068       0.250000
      74       -6.98073       0.250000
      75       -6.74647       0.250000
      76       -6.66369       0.250000
      77       -6.59076       0.250000
      78       -6.53410       0.250000
      79       -6.43207       0.250000
      80       -6.15736       0.250000
      81       -6.10025       0.250000
      82       -5.95838       0.250000
      83       -5.66515       0.250000
      84       -5.42942       0.250000
      85       -5.34626       0.250000
      86       -5.15716       0.250000
      87       -5.11151       0.250000
      88       -4.94570       0.250000
      89       -4.76956       0.250000
      90       -4.38229       0.250000
      91       -4.32044       0.250000
      92       -4.20805       0.250000
      93       -4.08069       0.250000
      94       -3.87154       0.250000
      95       -3.68684       0.250000
      96       -3.50136       0.250000
      97       -2.60517       0.250000
      98       -1.74828      0.0893628
      99       -1.71763      0.0617546
     100       -1.64811      0.0199496
     101      -0.965425        0.00000
     102       0.169125        0.00000
     103       0.306399        0.00000
     104       0.322802        0.00000
     105       0.400809        0.00000
     106       0.644213        0.00000
     107       0.941226        0.00000
     108        1.21392        0.00000
     109        1.47498        0.00000
     110        1.69445        0.00000
     111        1.90377        0.00000
     112        2.12999        0.00000
     113        3.06547        0.00000
     114        3.78910        0.00000
     115        4.04251        0.00000
     116        4.35126        0.00000
     117        4.85894        0.00000

 10/10 kpoint (Cartesian) = 0.0405875 0.0233659 0.00000 (0 pws)
       1       -21.0091       0.125000
       2       -20.8956       0.125000
       3       -20.5468       0.125000
       4       -20.3786       0.125000
       5       -19.6466       0.125000
       6       -19.6020       0.125000
       7       -19.5791       0.125000
       8       -19.3870       0.125000
       9       -19.1134       0.125000
      10       -18.9059       0.125000
      11       -18.2677       0.125000
      12       -18.2393       0.125000
      13       -18.1565       0.125000
      14       -17.8132       0.125000
      15       -16.9554       0.125000
      16       -16.9385       0.125000
      17       -16.8100       0.125000
      18       -16.7552       0.125000
      19       -16.5238       0.125000
      20       -16.4666       0.125000
      21       -16.4341       0.125000
      22       -16.1422       0.125000
      23       -15.6152       0.125000
      24       -15.2310       0.125000
      25       -15.0587       0.125000
      26       -14.6423       0.125000
      27       -14.1426       0.125000
      28       -14.1198       0.125000
      29       -13.9231       0.125000
      30       -13.8563       0.125000
      31       -13.5304       0.125000
      32       -13.1237       0.125000
      33       -12.7387       0.125000
      34       -12.7225       0.125000
      35       -12.5087       0.125000
      36       -12.1899       0.125000
      37       -11.9443       0.125000
      38       -11.8550       0.125000
      39       -11.7395       0.125000
      40       -11.5535       0.125000
      41       -11.5228       0.125000
      42       -10.9238       0.125000
      43       -10.4510       0.125000
      44       -10.3545       0.125000
      45       -10.3350       0.125000
      46       -10.2689       0.125000
      47       -9.96407       0.125000
      48       -9.73755       0.125000
      49       -9.25773       0.125000
      50       -9.21865       0.125000
      51       -9.10472       0.125000
      52       -9.08593       0.125000
      53       -8.96144       0.125000
      54       -8.95589       0.125000
      55       -8.91460       0.125000
      56       -8.73151       0.125000
      57       -8.68986       0.125000
      58       -8.52520       0.125000
      59       -8.51409       0.125000
      60       -8.43418       0.125000
      61       -8.35211       0.125000
      62       -8.35037       0.125000
      63       -7.97981       0.125000
      64       -7.96691       0.125000
      65       -7.63573       0.125000
      66       -7.52995       0.125000
      67       -7.44613       0.125000
      68       -7.44201       0.125000
      69       -7.41707       0.125000
      70       -7.39744       0.125000
      71       -7.31939       0.125000
      72       -7.30676       0.125000
      73       -7.19519       0.125000
      74       -7.18574       0.125000
      75       -6.86852       0.125000
      76       -6.81087       0.125000
      77       -6.65043       0.125000
      78       -6.31603       0.125000
      79       -6.15862       0.125000
      80       -5.95408       0.125000
      81       -5.87165       0.125000
      82       -5.86078       0.125000
      83       -5.81987       0.125000
      84       -5.81934       0.125000
      85       -5.44938       0.125000
      86       -5.40756       0.125000
      87       -5.30201       0.125000
      88       -4.42827       0.125000
      89       -4.39158       0.125000
      90       -4.35341       0.125000
      91       -4.30051       0.125000
      92       -4.19581       0.125000
      93       -4.16688       0.125000
      94       -4.15256       0.125000
      95       -4.06488       0.125000
      96       -3.12734       0.125000
      97       -2.64673       0.125000
      98       -1.94286       0.118908
      99       -1.72705      0.0348692
     100       -1.63886     0.00830817
     101      -0.549026        0.00000
     102      -0.322252        0.00000
     103       0.277829        0.00000
     104       0.570765        0.00000
     105       0.590783        0.00000
     106       0.668539        0.00000
     107       0.908391        0.00000
     108        1.18595        0.00000
     109        1.23561        0.00000
     110        1.28711        0.00000
     111        2.20096        0.00000
     112        2.94180        0.00000
     113        2.94968        0.00000
     114        3.02215        0.00000
     115        3.95886        0.00000
     116        4.58214        0.00000
     117        5.00791        0.00000

 EFERMI = -1.783421486353661 eV
 OUT.ABACUS/ final etot is -7579.447300853604 eV


 --------------------------------------------
 !FINAL_ETOT_IS -7579.447300853604 eV
 --------------------------------------------






  |CLASS_NAME---------|NAME---------------|TIME(Sec)-----|CALLS----|AVG------|PER%-------
                                      total         156.39         7       22.   1.0e+02%
                 Driver         driver_line         156.35         1   1.6e+02    1.e+02%
               PW_Basis  setup_struc_factor        0.11420         1      0.11     0.073%
            ORB_control      set_orb_tables         2.0539         1       2.1       1.3%
         ORB_gen_tables          gen_tables         2.0539         1       2.1       1.3%
          ORB_table_phi          init_Table         1.3797         1       1.4      0.88%
          ORB_table_phi      cal_ST_Phi12_R         1.3761        70     0.020      0.88%
         ORB_table_beta     init_Table_Beta        0.34059         1      0.34      0.22%
         ORB_table_beta       VNL_PhiBeta_R        0.33958        26     0.013      0.22%
              ppcell_vl           init_vloc        0.33584         1      0.34      0.21%
        ESolver_KS_LCAO                 Run         153.49         1   1.5e+02       98.%
        ESolver_KS_LCAO           beforescf         1.1412         1       1.1      0.73%
                 Charge          atomic_rho        0.42287         1      0.42      0.27%
               PW_Basis          recip2real         4.2815       102     0.042       2.7%
               PW_Basis    gathers_scatterp         1.9697       102     0.019       1.3%
              Potential            init_pot        0.63482         1      0.63      0.41%
              Potential  update_from_charge         12.008        20      0.60       7.7%
              Potential           cal_v_eff         11.963        20      0.60       7.6%
           H_Hartree_pw           v_hartree         2.0738        20      0.10       1.3%
               PW_Basis          real2recip         5.6275       158     0.036       3.6%
               PW_Basis    gatherp_scatters         2.7824       158     0.018       1.8%
                  PotXC           cal_v_eff         9.7690        20      0.49       6.2%
          XC_Functional                v_xc         9.7050        20      0.49       6.2%
            HSolverLCAO               solve         98.248        19       5.2       63.%
             HamiltLCAO            updateHk         34.613       190      0.18       22.%
           OperatorLCAO                init         34.611       570     0.061       22.%
                   Veff        contributeHk         33.568       190      0.18       21.%
                 Gint_k        folding_vl_k         33.566       190      0.18       21.%
                 Gint_k              Distri         33.564       190      0.18       21.%
           OperatorLCAO       folding_fixed        0.85160       190    0.0045      0.54%
               LCAO_nnr      folding_fixedH        0.54057       190    0.0028      0.35%
            HSolverLCAO     hamiltSolvePsiK         28.262       190      0.15       18.%
              DiagoElpa          elpa_solve         27.723       190      0.15       18.%
          ElecStateLCAO            psiToRho         35.370        19       1.9       23.%
              elecstate              cal_dm        0.80704        19     0.042      0.52%
           psiMulPsiMpi              pdgemm        0.62382       190    0.0033      0.40%
      Local_Orbital_wfc      wfc_2d_to_grid        0.33351       190    0.0018      0.21%
                 Charge             mix_rho         2.2473        18      0.12       1.4%
 ----------------------------------------------------------------------------------------

 CLASS_NAME---------|NAME---------------|MEMORY(MB)--------
                                         284.0
        ORB_table_phi               Jl(x)          107.2
        Charge_Mixing                Rrho          8.789
        Charge_Mixing               dRrho          7.690
        Charge_Mixing                drho          7.690
        Grid_Meshcell        index2normal          3.876
               Charge                 rho          1.099
               Charge            rho_save          1.099
               Charge            rho_core          1.099
            Potential   v_effective_fixed          1.099
            Potential              vr_eff          1.099
        Charge_Mixing           rho_save2          1.099
 ----------------------------------------------------------

 Start  Time  : Thu Nov 14 17:37:04 2024
 Finish Time  : Thu Nov 14 17:39:41 2024
 Total  Time  : 0 h 2 mins 37 secs 
