  51  51   0   0
  0.5138078E+02  0.1230000E-08  0.1230000E-08  0.2000000E-08  0.5000000E-15
  1.000000000000000E-004
  CAR 
                                         
      5.95450471    -33.53585533  301     -3.01742905      1.00000000
    -33.536  0.0000E+00  0.0000E+00
    -33.404  0.0000E+00  0.0000E+00
    -33.273  0.0000E+00  0.0000E+00
    -33.141  0.0000E+00  0.0000E+00
    -33.009  0.0000E+00  0.0000E+00
    -32.878  0.0000E+00  0.0000E+00
    -32.746  0.0000E+00  0.0000E+00
    -32.614  0.0000E+00  0.0000E+00
    -32.483  0.0000E+00  0.0000E+00
    -32.351  0.0000E+00  0.0000E+00
    -32.220  0.0000E+00  0.0000E+00
    -32.088  0.0000E+00  0.0000E+00
    -31.956  0.8376E-08  0.1103E-08
    -31.825  0.1349E+00  0.1776E-01
    -31.693  0.1372E+02  0.1824E+01
    -31.561  0.1339E+01  0.2000E+01
    -31.430  0.2932E-05  0.2000E+01
    -31.298  0.0000E+00  0.2000E+01
    -31.166  0.0000E+00  0.2000E+01
    -31.035  0.0000E+00  0.2000E+01
    -30.903  0.0000E+00  0.2000E+01
    -30.772  0.0000E+00  0.2000E+01
    -30.640  0.0000E+00  0.2000E+01
    -30.508  0.0000E+00  0.2000E+01
    -30.377  0.0000E+00  0.2000E+01
    -30.245  0.0000E+00  0.2000E+01
    -30.113  0.0000E+00  0.2000E+01
    -29.982  0.0000E+00  0.2000E+01
    -29.850  0.0000E+00  0.2000E+01
    -29.718  0.0000E+00  0.2000E+01
    -29.587  0.0000E+00  0.2000E+01
    -29.455  0.0000E+00  0.2000E+01
    -29.324  0.0000E+00  0.2000E+01
    -29.192  0.0000E+00  0.2000E+01
    -29.060  0.0000E+00  0.2000E+01
    -28.929  0.0000E+00  0.2000E+01
    -28.797  0.0000E+00  0.2000E+01
    -28.665  0.0000E+00  0.2000E+01
    -28.534  0.0000E+00  0.2000E+01
    -28.402  0.0000E+00  0.2000E+01
    -28.270  0.0000E+00  0.2000E+01
    -28.139  0.0000E+00  0.2000E+01
    -28.007  0.0000E+00  0.2000E+01
    -27.876  0.0000E+00  0.2000E+01
    -27.744  0.0000E+00  0.2000E+01
    -27.612  0.0000E+00  0.2000E+01
    -27.481  0.0000E+00  0.2000E+01
    -27.349  0.0000E+00  0.2000E+01
    -27.217  0.0000E+00  0.2000E+01
    -27.086  0.0000E+00  0.2000E+01
    -26.954  0.0000E+00  0.2000E+01
    -26.822  0.0000E+00  0.2000E+01
    -26.691  0.0000E+00  0.2000E+01
    -26.559  0.0000E+00  0.2000E+01
    -26.428  0.0000E+00  0.2000E+01
    -26.296  0.0000E+00  0.2000E+01
    -26.164  0.0000E+00  0.2000E+01
    -26.033  0.0000E+00  0.2000E+01
    -25.901  0.0000E+00  0.2000E+01
    -25.769  0.0000E+00  0.2000E+01
    -25.638  0.0000E+00  0.2000E+01
    -25.506  0.0000E+00  0.2000E+01
    -25.375  0.0000E+00  0.2000E+01
    -25.243  0.0000E+00  0.2000E+01
    -25.111  0.0000E+00  0.2000E+01
    -24.980  0.0000E+00  0.2000E+01
    -24.848  0.0000E+00  0.2000E+01
    -24.716  0.0000E+00  0.2000E+01
    -24.585  0.0000E+00  0.2000E+01
    -24.453  0.0000E+00  0.2000E+01
    -24.321  0.0000E+00  0.2000E+01
    -24.190  0.0000E+00  0.2000E+01
    -24.058  0.0000E+00  0.2000E+01
    -23.927  0.0000E+00  0.2000E+01
    -23.795  0.0000E+00  0.2000E+01
    -23.663  0.0000E+00  0.2000E+01
    -23.532  0.0000E+00  0.2000E+01
    -23.400  0.0000E+00  0.2000E+01
    -23.268  0.0000E+00  0.2000E+01
    -23.137  0.0000E+00  0.2000E+01
    -23.005  0.0000E+00  0.2000E+01
    -22.873  0.0000E+00  0.2000E+01
    -22.742  0.0000E+00  0.2000E+01
    -22.610  0.0000E+00  0.2000E+01
    -22.479  0.3860E-08  0.2000E+01
    -22.347  0.2743E-01  0.2004E+01
    -22.215  0.3902E+01  0.2517E+01
    -22.084  0.9505E+01  0.3768E+01
    -21.952  0.5042E+01  0.4432E+01
    -21.820  0.1041E+02  0.5802E+01
    -21.689  0.5429E+01  0.6517E+01
    -21.557  0.8113E+01  0.7585E+01
    -21.425  0.1214E+02  0.9183E+01
    -21.294  0.6196E+01  0.9999E+01
    -21.162  0.3341E+01  0.1044E+02
    -21.031  0.8989E+01  0.1162E+02
    -20.899  0.1051E+02  0.1300E+02
    -20.767  0.1057E+02  0.1440E+02
    -20.636  0.8762E+01  0.1555E+02
    -20.504  0.1556E+00  0.1557E+02
    -20.372  0.1268E+02  0.1724E+02
    -20.241  0.4336E+01  0.1781E+02
    -20.109  0.1825E+02  0.2021E+02
    -19.977  0.1774E+01  0.2045E+02
    -19.846  0.3220E+01  0.2087E+02
    -19.714  0.1350E+02  0.2265E+02
    -19.583  0.8795E+01  0.2380E+02
    -19.451  0.6533E+01  0.2466E+02
    -19.319  0.6071E+01  0.2546E+02
    -19.188  0.1453E+02  0.2738E+02
    -19.056  0.7098E+01  0.2831E+02
    -18.924  0.5266E+01  0.2900E+02
    -18.793  0.5305E+01  0.2970E+02
    -18.661  0.4610E+01  0.3031E+02
    -18.530  0.1439E+02  0.3220E+02
    -18.398  0.1107E+02  0.3366E+02
    -18.266  0.9223E+01  0.3487E+02
    -18.135  0.3950E+01  0.3539E+02
    -18.003  0.1604E+02  0.3750E+02
    -17.871  0.4772E+01  0.3813E+02
    -17.740  0.3920E+01  0.3865E+02
    -17.608  0.4798E+01  0.3928E+02
    -17.476  0.1623E+02  0.4142E+02
    -17.345  0.4143E+01  0.4196E+02
    -17.213  0.2168E+02  0.4482E+02
    -17.082  0.6931E+01  0.4573E+02
    -16.950  0.3701E+01  0.4622E+02
    -16.818  0.8432E+01  0.4733E+02
    -16.687  0.3921E+01  0.4784E+02
    -16.555  0.9224E+01  0.4906E+02
    -16.423  0.8747E+01  0.5021E+02
    -16.292  0.3219E+01  0.5063E+02
    -16.160  0.8823E+01  0.5179E+02
    -16.028  0.5901E+01  0.5257E+02
    -15.897  0.1330E+02  0.5432E+02
    -15.765  0.1229E+02  0.5594E+02
    -15.634  0.1989E+01  0.5620E+02
    -15.502  0.4061E+01  0.5674E+02
    -15.370  0.3071E+01  0.5714E+02
    -15.239  0.9869E+01  0.5844E+02
    -15.107  0.2153E+02  0.6127E+02
    -14.975  0.5365E+01  0.6198E+02
    -14.844  0.1116E+02  0.6345E+02
    -14.712  0.1089E+02  0.6488E+02
    -14.580  0.6478E+01  0.6573E+02
    -14.449  0.1432E+02  0.6762E+02
    -14.317  0.6264E+01  0.6844E+02
    -14.186  0.7278E+00  0.6854E+02
    -14.054  0.4343E+01  0.6911E+02
    -13.922  0.8959E+01  0.7029E+02
    -13.791  0.1583E+02  0.7238E+02
    -13.659  0.1965E+02  0.7496E+02
    -13.527  0.1744E+01  0.7519E+02
    -13.396  0.2759E+01  0.7555E+02
    -13.264  0.2885E+00  0.7559E+02
    -13.133  0.1065E+02  0.7699E+02
    -13.001  0.1382E+02  0.7881E+02
    -12.869  0.2058E+02  0.8152E+02
    -12.738  0.1938E+01  0.8178E+02
    -12.606  0.3431E+01  0.8223E+02
    -12.474  0.1846E+02  0.8466E+02
    -12.343  0.1099E+02  0.8611E+02
    -12.211  0.3882E+01  0.8662E+02
    -12.079  0.2463E+01  0.8694E+02
    -11.948  0.1292E+02  0.8864E+02
    -11.816  0.2918E+01  0.8903E+02
    -11.685  0.1487E+02  0.9098E+02
    -11.553  0.1865E+02  0.9344E+02
    -11.421  0.1378E+02  0.9525E+02
    -11.290  0.8146E+01  0.9632E+02
    -11.158  0.5858E+01  0.9710E+02
    -11.026  0.8546E+01  0.9822E+02
    -10.895  0.1120E+02  0.9969E+02
    -10.763  0.1848E+02  0.1021E+03
    -10.631  0.1701E+01  0.1024E+03
    -10.500  0.2020E+02  0.1050E+03
    -10.368  0.4504E+01  0.1056E+03
    -10.237  0.2212E+02  0.1085E+03
    -10.105  0.2676E+02  0.1120E+03
     -9.973  0.1958E+02  0.1146E+03
     -9.842  0.1295E+02  0.1163E+03
     -9.710  0.1837E+02  0.1187E+03
     -9.578  0.2585E+02  0.1221E+03
     -9.447  0.2289E+02  0.1252E+03
     -9.315  0.2589E+02  0.1286E+03
     -9.183  0.2406E+02  0.1317E+03
     -9.052  0.2813E+02  0.1354E+03
     -8.920  0.2027E+02  0.1381E+03
     -8.789  0.1951E+02  0.1407E+03
     -8.657  0.2073E+02  0.1434E+03
     -8.525  0.1913E+02  0.1459E+03
     -8.394  0.1599E+02  0.1480E+03
     -8.262  0.1573E+02  0.1501E+03
     -8.130  0.1445E+02  0.1520E+03
     -7.999  0.2968E+02  0.1559E+03
     -7.867  0.1623E+02  0.1580E+03
     -7.735  0.1801E+02  0.1604E+03
     -7.604  0.7156E+01  0.1613E+03
     -7.472  0.3273E+01  0.1618E+03
     -7.341  0.1414E+02  0.1636E+03
     -7.209  0.3304E+02  0.1680E+03
     -7.077  0.1834E+02  0.1704E+03
     -6.946  0.3074E+01  0.1708E+03
     -6.814  0.2038E+02  0.1735E+03
     -6.682  0.1159E+02  0.1750E+03
     -6.551  0.1663E+02  0.1772E+03
     -6.419  0.7526E+01  0.1782E+03
     -6.288  0.1178E+02  0.1797E+03
     -6.156  0.1533E+02  0.1818E+03
     -6.024  0.1449E+02  0.1837E+03
     -5.893  0.1839E+02  0.1861E+03
     -5.761  0.8748E+01  0.1872E+03
     -5.629  0.1375E+02  0.1891E+03
     -5.498  0.4217E+01  0.1896E+03
     -5.366  0.7277E+01  0.1906E+03
     -5.234  0.9372E+01  0.1918E+03
     -5.103  0.1039E+02  0.1932E+03
     -4.971  0.1669E+02  0.1954E+03
     -4.840  0.1828E+02  0.1978E+03
     -4.708  0.3229E+01  0.1982E+03
     -4.576  0.1877E+00  0.1982E+03
     -4.445  0.5804E-05  0.1982E+03
     -4.313  0.1658E+01  0.1984E+03
     -4.181  0.1713E+02  0.2007E+03
     -4.050  0.6535E+01  0.2016E+03
     -3.918  0.3728E-02  0.2016E+03
     -3.786  0.2192E+00  0.2016E+03
     -3.655  0.3111E+01  0.2020E+03
     -3.523  0.1602E+00  0.2020E+03
     -3.392  0.3783E+01  0.2025E+03
     -3.260  0.1222E+02  0.2041E+03
     -3.128  0.1017E+02  0.2055E+03
     -2.997  0.4119E+01  0.2060E+03
     -2.865  0.1978E+01  0.2063E+03
     -2.733  0.9591E+01  0.2075E+03
     -2.602  0.2291E+00  0.2076E+03
     -2.470  0.3272E-01  0.2076E+03
     -2.338  0.3065E+01  0.2080E+03
     -2.207  0.2608E+01  0.2083E+03
     -2.075  0.1047E+01  0.2084E+03
     -1.944  0.4142E-04  0.2084E+03
     -1.812  0.2280E-08  0.2084E+03
     -1.680  0.6072E-01  0.2085E+03
     -1.549  0.8954E+01  0.2096E+03
     -1.417  0.1141E+02  0.2111E+03
     -1.285  0.4894E+01  0.2118E+03
     -1.154  0.4651E-03  0.2118E+03
     -1.022  0.6653E+00  0.2119E+03
     -0.890  0.8889E+01  0.2130E+03
     -0.759  0.2439E+02  0.2162E+03
     -0.627  0.1872E+02  0.2187E+03
     -0.496  0.5884E+01  0.2195E+03
     -0.364  0.5370E+00  0.2196E+03
     -0.232  0.3699E+01  0.2200E+03
     -0.101  0.1106E+02  0.2215E+03
      0.031  0.1076E+02  0.2229E+03
      0.163  0.1524E+01  0.2231E+03
      0.294  0.1383E+02  0.2249E+03
      0.426  0.9261E+01  0.2262E+03
      0.557  0.3341E+01  0.2266E+03
      0.689  0.8683E+01  0.2277E+03
      0.821  0.1898E+02  0.2302E+03
      0.952  0.6029E+01  0.2310E+03
      1.084  0.9740E+01  0.2323E+03
      1.216  0.1668E+02  0.2345E+03
      1.347  0.6937E+01  0.2354E+03
      1.479  0.1498E+02  0.2374E+03
      1.611  0.2294E+02  0.2404E+03
      1.742  0.1608E+02  0.2425E+03
      1.874  0.2751E+02  0.2462E+03
      2.005  0.8779E+01  0.2473E+03
      2.137  0.1564E+02  0.2494E+03
      2.269  0.2508E+02  0.2527E+03
      2.400  0.2889E+02  0.2565E+03
      2.532  0.9957E+01  0.2578E+03
      2.664  0.6177E+01  0.2586E+03
      2.795  0.8824E+01  0.2598E+03
      2.927  0.5327E+01  0.2605E+03
      3.059  0.8695E+01  0.2616E+03
      3.190  0.2663E+01  0.2620E+03
      3.322  0.5334E+01  0.2627E+03
      3.453  0.9947E-01  0.2627E+03
      3.585  0.1765E+01  0.2629E+03
      3.717  0.4975E+01  0.2636E+03
      3.848  0.1323E-01  0.2636E+03
      3.980  0.6473E-06  0.2636E+03
      4.112  0.2967E+00  0.2636E+03
      4.243  0.3050E+01  0.2640E+03
      4.375  0.3009E-01  0.2640E+03
      4.507  0.1877E-08  0.2640E+03
      4.638  0.0000E+00  0.2640E+03
      4.770  0.0000E+00  0.2640E+03
      4.901  0.0000E+00  0.2640E+03
      5.033  0.0000E+00  0.2640E+03
      5.165  0.0000E+00  0.2640E+03
      5.296  0.0000E+00  0.2640E+03
      5.428  0.0000E+00  0.2640E+03
      5.560  0.0000E+00  0.2640E+03
      5.691  0.0000E+00  0.2640E+03
      5.823  0.0000E+00  0.2640E+03
      5.955  0.0000E+00  0.2640E+03
