 vasp.5.4.4.18Apr17-6-g9f103f2a35 (build Aug 13 2022 23:40:43) complex          
  
 executed on             LinuxIFC date 2024.11.10  04:04:17
 running on   48 total cores
 distrk:  each k-point on   48 cores,    1 groups
 distr:  one band on NCORES_PER_BAND=   8 cores,    6 groups


--------------------------------------------------------------------------------------------------------


 INCAR:
 POTCAR:    PAW_PBE C 08Apr2002                   
 POTCAR:    PAW_PBE O 08Apr2002                   
 POTCAR:    PAW_PBE C 08Apr2002                   
   VRHFIN =C: s2p2                                                              
   LEXCH  = PE                                                                  
   EATOM  =   147.1560 eV,   10.8157 Ry                                         
                                                                                
   TITEL  = PAW_PBE C 08Apr2002                                                 
   LULTRA =        F    use ultrasoft PP ?                                      
   IUNSCR =        1    unscreen: 0-lin 1-nonlin 2-no                           
   RPACOR =    1.200    partial core radius                                     
   POMASS =   12.011; ZVAL   =    4.000    mass and valenz                      
   RCORE  =    1.500    outmost cutoff radius                                   
   RWIGS  =    1.630; RWIGS  =    0.863    wigner-seitz radius (au A)           
   ENMAX  =  400.000; ENMIN  =  300.000 eV                                      
   ICORE  =        2    local potential                                         
   LCOR   =        T    correct aug charges                                     
   LPAW   =        T    paw PP                                                  
   EAUG   =  644.873                                                            
   DEXC   =    0.000                                                            
   RMAX   =    1.529    core radius for proj-oper                               
   RAUG   =    1.300    factor for augmentation sphere                          
   RDEP   =    1.501    radius for radial grids                                 
   RDEPT  =    1.300    core radius for aug-charge                              
                                                                                
   Atomic configuration                                                         
    4 entries                                                                   
     n  l   j            E        occ.                                          
     1  0  0.50      -273.3789   2.0000                                         
     2  0  0.50       -13.7508   2.0000                                         
     2  1  0.50        -5.2854   2.0000                                         
     3  2  1.50        -5.4423   0.0000                                         
   Description                                                                  
     l       E           TYP  RCUT    TYP  RCUT                                 
     0    -13.7508458     23  1.200                                             
     0     -8.2022199     23  1.200                                             
     1     -5.2854383     23  1.500                                             
     1     34.0145650     23  1.500                                             
     2     -5.4423304      7  1.500                                             
  local pseudopotential read in
  partial core-charges read in
  partial kinetic energy density read in
  atomic valenz-charges read in
  non local Contribution for L=           0  read in
    real space projection operators read in
  non local Contribution for L=           0  read in
    real space projection operators read in
  non local Contribution for L=           1  read in
    real space projection operators read in
  non local Contribution for L=           1  read in
    real space projection operators read in
    PAW grid and wavefunctions read in
 
   number of l-projection  operators is LMAX  =           4
   number of lm-projection operators is LMMAX =           8
 
 POTCAR:    PAW_PBE O 08Apr2002                   
   VRHFIN =O: s2p4                                                              
   LEXCH  = PE                                                                  
   EATOM  =   432.3788 eV,   31.7789 Ry                                         
                                                                                
   TITEL  = PAW_PBE O 08Apr2002                                                 
   LULTRA =        F    use ultrasoft PP ?                                      
   IUNSCR =        1    unscreen: 0-lin 1-nonlin 2-no                           
   RPACOR =    1.200    partial core radius                                     
   POMASS =   16.000; ZVAL   =    6.000    mass and valenz                      
   RCORE  =    1.520    outmost cutoff radius                                   
   RWIGS  =    1.550; RWIGS  =    0.820    wigner-seitz radius (au A)           
   ENMAX  =  400.000; ENMIN  =  300.000 eV                                      
   ICORE  =        2    local potential                                         
   LCOR   =        T    correct aug charges                                     
   LPAW   =        T    paw PP                                                  
   EAUG   =  605.392                                                            
   DEXC   =    0.000                                                            
   RMAX   =    1.553    core radius for proj-oper                               
   RAUG   =    1.300    factor for augmentation sphere                          
   RDEP   =    1.550    radius for radial grids                                 
   RDEPT  =    1.329    core radius for aug-charge                              
                                                                                
   Atomic configuration                                                         
    4 entries                                                                   
     n  l   j            E        occ.                                          
     1  0  0.50      -514.6923   2.0000                                         
     2  0  0.50       -23.9615   2.0000                                         
     2  1  0.50        -9.0305   4.0000                                         
     3  2  1.50        -9.5241   0.0000                                         
   Description                                                                  
     l       E           TYP  RCUT    TYP  RCUT                                 
     0    -23.9615318     23  1.200                                             
     0     -9.5240782     23  1.200                                             
     1     -9.0304911     23  1.520                                             
     1      8.1634956     23  1.520                                             
     2     -9.5240782      7  1.500                                             
  local pseudopotential read in
  partial core-charges read in
  partial kinetic energy density read in
  kinetic energy density of atom read in
  atomic valenz-charges read in
  non local Contribution for L=           0  read in
    real space projection operators read in
  non local Contribution for L=           0  read in
    real space projection operators read in
  non local Contribution for L=           1  read in
    real space projection operators read in
  non local Contribution for L=           1  read in
    real space projection operators read in
    PAW grid and wavefunctions read in
 
   number of l-projection  operators is LMAX  =           4
   number of lm-projection operators is LMMAX =           8
 

 ----------------------------------------------------------------------------- 
|                                                                             |
|  ADVICE TO THIS USER RUNNING 'VASP/VAMP'   (HEAR YOUR MASTER'S VOICE ...):  |
|                                                                             |
|      You have a (more or less) 'large supercell' and for larger cells       |
|      it might be more efficient to use real space projection opertators     |
|      So try LREAL= Auto  in the INCAR   file.                               |
|      Mind:          For very  accurate calculation you might also keep the  |
|      reciprocal projection scheme          (i.e. LREAL=.FALSE.)             |
|                                                                             |
 ----------------------------------------------------------------------------- 

  PAW_PBE C 08Apr2002                   :
 energy of atom  1       EATOM= -147.1560
 kinetic energy error for atom=    0.0288 (will be added to EATOM!!)
  PAW_PBE O 08Apr2002                   :
 energy of atom  2       EATOM= -432.3788
 kinetic energy error for atom=    0.1156 (will be added to EATOM!!)
 
 
 POSCAR: generated by phonopy                    
  positions in direct lattice
  No initial velocities read in
 exchange correlation table for  LEXCH =        8
   RHO(1)=    0.500       N(1)  =     2000
   RHO(2)=  100.500       N(2)  =     4000

 VTST: version 3.2, (02/03/18)

 CHAIN: initializing optimizer
 
 OPT: Using VASP Dynamics algorithm
 CHAIN: Read ICHAIN            0
 
 POSCAR: generated by phonopy                    
  positions in direct lattice
  No initial velocities read in
 


--------------------------------------------------------------------------------------------------------


 ion  position               nearest neighbor table
   1  0.000  0.000  0.418-  30 1.42  46 1.42  26 1.42
   2  0.200  0.000  0.418-  26 1.42  27 1.42  47 1.42
   3  0.400  0.000  0.418-  28 1.42  27 1.42  48 1.42
   4  0.600  0.000  0.418-  29 1.42  28 1.42  49 1.42
   5  0.800  0.000  0.418-  30 1.42  29 1.42  50 1.42
   6  0.000  0.200  0.418-  31 1.42  35 1.42  26 1.42
   7  0.200  0.200  0.418-  32 1.42  31 1.42  27 1.42
   8  0.400  0.200  0.418-  33 1.42  32 1.42  28 1.42
   9  0.600  0.200  0.418-  34 1.42  33 1.42  29 1.42
  10  0.800  0.200  0.418-  35 1.42  34 1.42  30 1.42
  11  0.000  0.400  0.418-  36 1.42  40 1.42  31 1.42
  12  0.200  0.400  0.418-  37 1.42  36 1.42  32 1.42
  13  0.400  0.400  0.418-  51 1.00  38 1.42  37 1.42  33 1.42
  14  0.600  0.400  0.418-  39 1.42  38 1.42  34 1.42
  15  0.800  0.400  0.418-  40 1.42  39 1.42  35 1.42
  16  0.000  0.600  0.418-  41 1.42  45 1.42  36 1.42
  17  0.200  0.600  0.418-  42 1.42  41 1.42  37 1.42
  18  0.400  0.600  0.418-  43 1.42  42 1.42  38 1.42
  19  0.600  0.600  0.418-  44 1.42  43 1.42  39 1.42
  20  0.800  0.600  0.418-  45 1.42  44 1.42  40 1.42
  21  0.000  0.800  0.418-  46 1.42  50 1.42  41 1.42
  22  0.200  0.800  0.418-  47 1.42  46 1.42  42 1.42
  23  0.400  0.800  0.418-  48 1.42  47 1.42  43 1.42
  24  0.600  0.800  0.418-  49 1.42  48 1.42  44 1.42
  25  0.800  0.800  0.418-  50 1.42  49 1.42  45 1.42
  26  0.067  0.067  0.418-   2 1.42   6 1.42   1 1.42
  27  0.267  0.067  0.418-   2 1.42   3 1.42   7 1.42
  28  0.467  0.067  0.418-   3 1.42   4 1.42   8 1.42
  29  0.667  0.067  0.418-   4 1.42   5 1.42   9 1.42
  30  0.867  0.067  0.418-   5 1.42   1 1.42  10 1.42
  31  0.067  0.267  0.418-   6 1.42   7 1.42  11 1.42
  32  0.267  0.267  0.418-   7 1.42   8 1.42  12 1.42
  33  0.467  0.267  0.418-   8 1.42   9 1.42  13 1.42  51 1.74
  34  0.667  0.267  0.418-   9 1.42  10 1.42  14 1.42
  35  0.867  0.267  0.418-  10 1.42   6 1.42  15 1.42
  36  0.067  0.467  0.418-  11 1.42  12 1.42  16 1.42
  37  0.267  0.467  0.418-  12 1.42  13 1.42  17 1.42  51 1.74
  38  0.467  0.467  0.418-  13 1.42  14 1.42  18 1.42  51 1.74
  39  0.667  0.467  0.418-  14 1.42  15 1.42  19 1.42
  40  0.867  0.467  0.418-  15 1.42  11 1.42  20 1.42
  41  0.067  0.667  0.418-  16 1.42  17 1.42  21 1.42
  42  0.267  0.667  0.418-  17 1.42  18 1.42  22 1.42
  43  0.467  0.667  0.418-  18 1.42  19 1.42  23 1.42
  44  0.667  0.667  0.418-  19 1.42  20 1.42  24 1.42
  45  0.867  0.667  0.418-  20 1.42  16 1.42  25 1.42
  46  0.067  0.867  0.418-  21 1.42  22 1.42   1 1.42
  47  0.267  0.867  0.418-  22 1.42  23 1.42   2 1.42
  48  0.467  0.867  0.418-  23 1.42  24 1.42   3 1.42
  49  0.667  0.867  0.418-  24 1.42  25 1.42   4 1.42
  50  0.867  0.867  0.418-  25 1.42  21 1.42   5 1.42
  51  0.400  0.400  0.468-  13 1.00  38 1.74  37 1.74  33 1.74
 
  LATTYP: Found a hexagonal cell.
 ALAT       =    12.2999994816
 C/A-ratio  =     1.6260163287
  
  Lattice vectors:
  
 A1 = (   6.1499993860, -10.6521122225,   0.0000000000)
 A2 = ( -12.3000001905,   0.0000000000,   0.0000000000)
 A3 = (   0.0000000000,   0.0000000000, -20.0000000000)


Analysis of symmetry for initial positions (statically):
=====================================================================
 Subroutine PRICEL returns:
 Original cell was already a primitive cell.
 

 Routine SETGRP: Setting up the symmetry group for a 
 hexagonal supercell.


 Subroutine GETGRP returns: Found  1 space group operations
 (whereof  1 operations were pure point group operations)
 out of a pool of 24 trial point group operations.


The static configuration has the point symmetry C_1 .


Analysis of symmetry for dynamics (positions and initial velocities):
=====================================================================
 Subroutine PRICEL returns:
 Original cell was already a primitive cell.
 

 Routine SETGRP: Setting up the symmetry group for a 
 hexagonal supercell.


 Subroutine GETGRP returns: Found  1 space group operations
 (whereof  1 operations were pure point group operations)
 out of a pool of 24 trial point group operations.


The dynamic configuration has the point symmetry C_1 .


 Subroutine INISYM returns: Found  1 space group operations
 (whereof  1 operations are pure point group operations),
 and found     1 'primitive' translations

 
 
 KPOINTS: K-POINTS                                

Automatic generation of k-mesh.
Space group operators:
 irot       det(A)        alpha          n_x          n_y          n_z        tau_x        tau_y        tau_z
    1     1.000000     0.000000     1.000000     0.000000     0.000000     0.000000     0.000000     0.000000
 
 Subroutine IBZKPT returns following result:
 ===========================================
 
 Found      5 irreducible k-points:
 
 Following reciprocal coordinates:
            Coordinates               Weight
  0.000000  0.000000  0.000000      1.000000
  0.333333  0.000000  0.000000      2.000000
  0.000000  0.333333  0.000000      2.000000
  0.333333  0.333333  0.000000      2.000000
 -0.333333  0.333333  0.000000      2.000000
 
 Following cartesian coordinates:
            Coordinates               Weight
  0.000000  0.000000  0.000000      1.000000
  0.027100 -0.015646  0.000000      2.000000
  0.000000  0.031293  0.000000      2.000000
  0.027100  0.015646  0.000000      2.000000
 -0.027100  0.046939  0.000000      2.000000
 


--------------------------------------------------------------------------------------------------------




 Dimension of arrays:
   k-points           NKPTS =      5   k-points in BZ     NKDIM =      5   number of bands    NBANDS=    132
   number of dos      NEDOS =    301   number of ions     NIONS =     51
   non local maximal  LDIM  =      4   non local SUM 2l+1 LMDIM =      8
   total plane-waves  NPLWV = 896000
   max r-space proj   IRMAX =      1   max aug-charges    IRDMAX=  35685
   dimension x,y,z NGX =    80 NGY =   80 NGZ =  140
   dimension x,y,z NGXF=   160 NGYF=  160 NGZF=  280
   support grid    NGXF=   320 NGYF=  320 NGZF=  560
   ions per type =              50   1
   NGX,Y,Z   is equivalent  to a cutoff of  10.81, 10.81, 11.64 a.u.
   NGXF,Y,Z  is equivalent  to a cutoff of  21.63, 21.63, 23.27 a.u.

 SYSTEM =                                          
 POSCAR =  generated by phonopy                    

 Startparameter for this run:
   NWRITE =      2    write-flag & timer
   PREC   = accura    normal or accurate (medium, high low for compatibility)
   ISTART =      1    job   : 0-new  1-cont  2-samecut
   ICHARG =      1    charge: 1-file 2-atom 10-const
   ISPIN  =      1    spin polarized calculation?
   LNONCOLLINEAR =      F non collinear calculations
   LSORBIT =      F    spin-orbit coupling
   INIWAV =      1    electr: 0-lowe 1-rand  2-diag
   LASPH  =      F    aspherical Exc in radial PAW
   METAGGA=      F    non-selfconsistent MetaGGA calc.

 Electronic Relaxation 1
   ENCUT  =  400.0 eV  29.40 Ry    5.42 a.u.  20.06 20.06 32.61*2*pi/ulx,y,z
   ENINI  =  400.0     initial cutoff
   ENAUG  =  644.9 eV  augmentation charge cutoff
   NELM   =    300;   NELMIN=  2; NELMDL=  0     # of ELM steps 
   EDIFF  = 0.1E-04   stopping-criterion for ELM
   LREAL  =      F    real-space projection
   NLSPLINE    = F    spline interpolate recip. space projectors
   LCOMPAT=      F    compatible to vasp.4.4
   GGA_COMPAT  = T    GGA compatible to vasp.4.4-vasp.4.6
   LMAXPAW     = -100 max onsite density
   LMAXMIX     =    2 max onsite mixed and CHGCAR
   VOSKOWN=      0    Vosko Wilk Nusair interpolation
   ROPT   =    0.00000   0.00000
 Ionic relaxation
   EDIFFG = -.1E-02   stopping-criterion for IOM
   NSW    =      1    number of steps for IOM
   NBLOCK =      1;   KBLOCK =      1    inner block; outer block 
   IBRION =     -1    ionic relax: 0-MD 1-quasi-New 2-CG
   NFREE  =      0    steps in history (QN), initial steepest desc. (CG)
   ISIF   =      2    stress and relaxation
   IWAVPR =     10    prediction:  0-non 1-charg 2-wave 3-comb
   ISYM   =      2    0-nonsym 1-usesym 2-fastsym
   LCORR  =      T    Harris-Foulkes like correction to forces

   POTIM  = 0.5000    time-step for ionic-motion
   TEIN   =    0.0    initial temperature
   TEBEG  =    0.0;   TEEND  =   0.0 temperature during run
   SMASS  =  -3.00    Nose mass-parameter (am)
   estimated Nose-frequenzy (Omega)   =  0.10E-29 period in steps =****** mass=  -0.346E-26a.u.
   SCALEE = 1.0000    scale energy and forces
   NPACO  =    256;   APACO  = 16.0  distance and # of slots for P.C.
   PSTRESS=    0.0 pullay stress

  Mass of Ions in am
   POMASS =  12.01 16.00
  Ionic Valenz
   ZVAL   =   4.00  6.00
  Atomic Wigner-Seitz radii
   RWIGS  =  -1.00 -1.00
  virtual crystal weights 
   VCA    =   1.00  1.00
   NELECT =     206.0000    total number of electrons
   NUPDOWN=      -1.0000    fix difference up-down

 DOS related values:
   EMIN   =  10.00;   EMAX   =-10.00  energy-range for DOS
   EFERMI =   0.00
   ISMEAR =     0;   SIGMA  =   0.05  broadening in eV -4-tet -1-fermi 0-gaus

 Electronic relaxation 2 (details)
   IALGO  =     68    algorithm
   LDIAG  =      T    sub-space diagonalisation (order eigenvalues)
   LSUBROT=      F    optimize rotation matrix (better conditioning)
   TURBO    =      0    0=normal 1=particle mesh
   IRESTART =      0    0=no restart 2=restart with 2 vectors
   NREBOOT  =      0    no. of reboots
   NMIN     =      0    reboot dimension
   EREF     =   0.00    reference energy to select bands
   IMIX   =      4    mixing-type and parameters
     AMIX     =   0.40;   BMIX     =  1.00
     AMIX_MAG =   1.60;   BMIX_MAG =  1.00
     AMIN     =   0.10
     WC   =   100.;   INIMIX=   1;  MIXPRE=   1;  MAXMIX= -45

 Intra band minimization:
   WEIMIN = 0.0000     energy-eigenvalue tresh-hold
   EBREAK =  0.19E-07  absolut break condition
   DEPER  =   0.30     relativ break condition  

   TIME   =   0.40     timestep for ELM

  volume/ion in A,a.u.               =      51.38       346.73
  Fermi-wavevector in a.u.,A,eV,Ry     =   0.701305  1.325274  6.691736  0.491829
  Thomas-Fermi vector in A             =   1.785695
 
 Write flags
   LWAVE        =      F    write WAVECAR
   LDOWNSAMPLE  =      F    k-point downsampling of WAVECAR
   LCHARG       =      F    write CHGCAR
   LVTOT        =      F    write LOCPOT, total local potential
   LVHAR        =      F    write LOCPOT, Hartree potential only
   LELF         =      F    write electronic localiz. function (ELF)
   LORBIT       =      0    0 simple, 1 ext, 2 COOP (PROOUT), +10 PAW based schemes


 Dipole corrections
   LMONO  =      F    monopole corrections only (constant potential shift)
   LDIPOL =      F    correct potential (dipole corrections)
   IDIPOL =      0    1-x, 2-y, 3-z, 4-all directions 
   EPSILON=  1.0000000 bulk dielectric constant

 Exchange correlation treatment:
   GGA     =    --    GGA type
   LEXCH   =     8    internal setting for exchange type
   VOSKOWN=      0    Vosko Wilk Nusair interpolation
   LHFCALC =     F    Hartree Fock is set to
   LHFONE  =     F    Hartree Fock one center treatment
   AEXX    =    0.0000 exact exchange contribution

 Linear response parameters
   LEPSILON=     F    determine dielectric tensor
   LRPA    =     F    only Hartree local field effects (RPA)
   LNABLA  =     F    use nabla operator in PAW spheres
   LVEL    =     F    velocity operator in full k-point grid
   LINTERFAST=   F  fast interpolation
   KINTER  =     0    interpolate to denser k-point grid
   CSHIFT  =0.1000    complex shift for real part using Kramers Kronig
   OMEGAMAX=  -1.0    maximum frequency
   DEG_THRESHOLD= 0.2000000E-02 threshold for treating states as degnerate
   RTIME   =   -0.100 relaxation time in fs
  (WPLASMAI=    0.000 imaginary part of plasma frequency in eV, 0.658/RTIME)
   DFIELD  = 0.0000000 0.0000000 0.0000000 field for delta impulse in time
 
 Orbital magnetization related:
   ORBITALMAG=     F  switch on orbital magnetization
   LCHIMAG   =     F  perturbation theory with respect to B field
   DQ        =  0.001000  dq finite difference perturbation B field
   LLRAUG    =     F  two centre corrections for induced B field



--------------------------------------------------------------------------------------------------------


 Static calculation
 charge density and potential will be updated during run
 non-spin polarized calculation
 RMM-DIIS sequential band-by-band and
  variant of blocked Davidson during initial phase
 perform sub-space diagonalisation
    before iterative eigenvector-optimisation
 modified Broyden-mixing scheme, WC =      100.0
 initial mixing is a Kerker type mixing with AMIX =  0.4000 and BMIX =      1.0000
 Hartree-type preconditioning will be used
 using additional bands           29
 reciprocal scheme for non local part
 use partial core corrections
 calculate Harris-corrections to forces 
   (improved forces if not selfconsistent)
 use gradient corrections 
 use of overlap-Matrix (Vanderbilt PP)
 Gauss-broadening in eV      SIGMA  =   0.05


--------------------------------------------------------------------------------------------------------


  energy-cutoff  :      400.00
  volume of cell :     2620.42
      direct lattice vectors                 reciprocal lattice vectors
    12.300000191  0.000000000  0.000000000     0.081300812 -0.046939053  0.000000000
     6.150000804 10.652112223  0.000000000     0.000000000  0.093878095  0.000000000
     0.000000000  0.000000000 20.000000000     0.000000000  0.000000000  0.050000000

  length of vectors
    12.300000191 12.300000191 20.000000000     0.093878095  0.093878095  0.050000000


 
 old parameters found on file WAVECAR:
  energy-cutoff  :      400.00
  volume of cell :     2620.42
      direct lattice vectors                 reciprocal lattice vectors
    12.300000191  0.000000000  0.000000000     0.081300812 -0.046939053  0.000000000
     6.150000804 10.652112223  0.000000000     0.000000000  0.093878095  0.000000000
     0.000000000  0.000000000 20.000000000     0.000000000  0.000000000  0.050000000

  length of vectors

 
 k-points in units of 2pi/SCALE and weight: K-POINTS                                
   0.00000000  0.00000000  0.00000000       0.111
   0.02710027 -0.01564635  0.00000000       0.222
   0.00000000  0.03129270  0.00000000       0.222
   0.02710027  0.01564635  0.00000000       0.222
  -0.02710027  0.04693905  0.00000000       0.222
 
 k-points in reciprocal lattice and weights: K-POINTS                                
   0.00000000  0.00000000  0.00000000       0.111
   0.33333333  0.00000000  0.00000000       0.222
   0.00000000  0.33333333  0.00000000       0.222
   0.33333333  0.33333333  0.00000000       0.222
  -0.33333333  0.33333333  0.00000000       0.222
 
 position of ions in fractional coordinates (direct lattice) 
   0.00000000  0.00000000  0.41799748
   0.20000000  0.00000000  0.41799748
   0.40000000  0.00000000  0.41799748
   0.60000000  0.00000000  0.41799748
   0.80000000  0.00000000  0.41799748
   0.00000000  0.20000000  0.41799748
   0.20000000  0.20000000  0.41799748
   0.40000000  0.20000000  0.41799748
   0.60000000  0.20000000  0.41799748
   0.80000000  0.20000000  0.41799748
   0.00000000  0.40000000  0.41799748
   0.20000000  0.40000000  0.41799748
   0.40000000  0.40000000  0.41799748
   0.60000000  0.40000000  0.41799748
   0.80000000  0.40000000  0.41799748
   0.00000000  0.60000000  0.41799748
   0.20000000  0.60000000  0.41799748
   0.40000000  0.60000000  0.41799748
   0.60000000  0.60000000  0.41799748
   0.80000000  0.60000000  0.41799748
   0.00000000  0.80000000  0.41799748
   0.20000000  0.80000000  0.41799748
   0.40000000  0.80000000  0.41799748
   0.60000000  0.80000000  0.41799748
   0.80000000  0.80000000  0.41799748
   0.06709257  0.06666660  0.41843199
   0.26666667  0.06666660  0.41800609
   0.46666667  0.06666660  0.41800609
   0.66666667  0.06666660  0.41800609
   0.86666667  0.06666660  0.41800609
   0.06666667  0.26666660  0.41800609
   0.26666667  0.26666660  0.41800609
   0.46666667  0.26666660  0.41800609
   0.66666667  0.26666660  0.41800609
   0.86666667  0.26666660  0.41800609
   0.06666667  0.46666660  0.41800609
   0.26666667  0.46666660  0.41800609
   0.46666667  0.46666660  0.41800609
   0.66666667  0.46666660  0.41800609
   0.86666667  0.46666660  0.41800609
   0.06666667  0.66666660  0.41800609
   0.26666667  0.66666660  0.41800609
   0.46666667  0.66666660  0.41800609
   0.66666667  0.66666660  0.41800609
   0.86666667  0.66666660  0.41800609
   0.06666667  0.86666660  0.41800609
   0.26666667  0.86666660  0.41800609
   0.46666667  0.86666660  0.41800609
   0.66666667  0.86666660  0.41800609
   0.86666667  0.86666660  0.41800609
   0.40000000  0.40000000  0.46800609
 
 position of ions in cartesian coordinates  (Angst):
   0.00000000  0.00000000  8.35994958
   2.46000004  0.00000000  8.35994958
   4.92000008  0.00000000  8.35994958
   7.38000011  0.00000000  8.35994958
   9.84000015  0.00000000  8.35994958
   1.23000016  2.13042244  8.35994958
   3.69000020  2.13042244  8.35994958
   6.15000024  2.13042244  8.35994958
   8.61000028  2.13042244  8.35994958
  11.07000031  2.13042244  8.35994958
   2.46000032  4.26084489  8.35994958
   4.92000036  4.26084489  8.35994958
   7.38000040  4.26084489  8.35994958
   9.84000044  4.26084489  8.35994958
  12.30000047  4.26084489  8.35994958
   3.69000048  6.39126733  8.35994958
   6.15000052  6.39126733  8.35994958
   8.61000056  6.39126733  8.35994958
  11.07000060  6.39126733  8.35994958
  13.53000064  6.39126733  8.35994958
   4.92000064  8.52168978  8.35994958
   7.38000068  8.52168978  8.35994958
   9.84000072  8.52168978  8.35994958
  12.30000076  8.52168978  8.35994958
  14.76000080  8.52168978  8.35994958
   1.23523830  0.71014014  8.36863989
   3.68999974  0.71014014  8.36012184
   6.14999977  0.71014014  8.36012184
   8.60999981  0.71014014  8.36012184
  11.06999985  0.71014014  8.36012184
   2.45999986  2.84056258  8.36012184
   4.91999990  2.84056258  8.36012184
   7.37999994  2.84056258  8.36012184
   9.83999997  2.84056258  8.36012184
  12.30000001  2.84056258  8.36012184
   3.69000002  4.97098503  8.36012184
   6.15000006  4.97098503  8.36012184
   8.61000010  4.97098503  8.36012184
  11.07000013  4.97098503  8.36012184
  13.53000017  4.97098503  8.36012184
   4.92000018  7.10140747  8.36012184
   7.38000022  7.10140747  8.36012184
   9.84000026  7.10140747  8.36012184
  12.30000030  7.10140747  8.36012184
  14.76000033  7.10140747  8.36012184
   6.15000034  9.23182991  8.36012184
   8.61000038  9.23182991  8.36012184
  11.07000042  9.23182991  8.36012184
  13.53000046  9.23182991  8.36012184
  15.99000049  9.23182991  8.36012184
   7.38000040  4.26084489  9.36012184
 


--------------------------------------------------------------------------------------------------------


 k-point  1 :   0.0000 0.0000 0.0000  plane waves:   47639
 k-point  2 :   0.3333 0.0000 0.0000  plane waves:   47601
 k-point  3 :   0.0000 0.3333 0.0000  plane waves:   47601
 k-point  4 :   0.3333 0.3333 0.0000  plane waves:   47601
 k-point  5 :  -0.3333 0.3333 0.0000  plane waves:   47598

 maximum and minimum number of plane-waves per node :      5975     5928

 maximum number of plane-waves:     47639
 maximum index in each direction: 
   IXMAX=   20   IYMAX=   20   IZMAX=   32
   IXMIN=  -20   IYMIN=  -20   IZMIN=  -32


 parallel 3D FFT for wavefunctions:
    minimum data exchange during FFTs selected (reduces bandwidth)
 parallel 3D FFT for charge:
    minimum data exchange during FFTs selected (reduces bandwidth)


 total amount of memory used by VASP MPI-rank0    90113. kBytes
=======================================================================

   base      :      30000. kBytes
   nonl-proj :       8674. kBytes
   fftplans  :      26248. kBytes
   grid      :      14579. kBytes
   one-center:         21. kBytes
   wavefun   :      10591. kBytes
 
     INWAV:  cpu time    0.8830: real time    0.8834
 Broyden mixing: mesh for mixing (old mesh)
   NGX = 41   NGY = 41   NGZ = 65
  (NGX  =160   NGY  =160   NGZ  =280)
  gives a total of 109265 points

 initial charge density was supplied:
 number of electron     206.0000000 magnetization 
 keeping initial charge density in first step


--------------------------------------------------------------------------------------------------------


 Maximum index for augmentation-charges         1119 (set IRDMAX)


--------------------------------------------------------------------------------------------------------


 First call to EWALD:  gamma=   0.129
 Maximum number of real-space cells 3x 3x 2
 Maximum number of reciprocal cells 3x 3x 4

    FEWALD:  cpu time    0.0014: real time    0.0029


--------------------------------------- Iteration      1(   1)  ---------------------------------------


    POTLOK:  cpu time    0.1061: real time    0.1161
    SETDIJ:  cpu time    0.0825: real time    0.0839
     EDDAV:  cpu time    4.1134: real time    4.1192
       DOS:  cpu time    0.0005: real time    0.0005
    CHARGE:  cpu time    0.3953: real time    0.3957
    MIXING:  cpu time    0.0053: real time    0.0054
    --------------------------------------------
      LOOP:  cpu time    4.7031: real time    4.7208

 eigenvalue-minimisations  :  1356
 total energy-change (2. order) :-0.4532949E+03  (-0.2841225E+02)
 number of electron     206.0000000 magnetization 
 augmentation part        5.5093964 magnetization 

 Broyden mixing:
  rms(total) = 0.49198E-01    rms(broyden)= 0.49164E-01
  rms(prec ) = 0.50588E-01
  weight for this iteration     100.00

 Free energy of the ion-electron system (eV)
  ---------------------------------------------------
  alpha Z        PSCENC =        82.54348252
  Ewald energy   TEWEN  =     34516.54559737
  -Hartree energ DENC   =    -41034.85764869
  -exchange      EXHF   =         0.00000000
  -V(xc)+E(xc)   XCENC  =       721.37976407
  PAW double counting   =     22781.19595426   -22817.52509957
  entropy T*S    EENTRO =        -0.00050465
  eigenvalues    EBANDS =     -2491.20084419
  atomic energy  EATOM  =      7788.62438962
  Solvation  Ediel_sol  =         0.00000000
  ---------------------------------------------------
  free energy    TOTEN  =      -453.29490926 eV

  energy without entropy =     -453.29440461  energy(sigma->0) =     -453.29465694


--------------------------------------------------------------------------------------------------------




--------------------------------------- Iteration      1(   2)  ---------------------------------------


    POTLOK:  cpu time    0.0987: real time    0.0997
    SETDIJ:  cpu time    0.0800: real time    0.0816
    EDDIAG:  cpu time    0.8845: real time    0.8855
  RMM-DIIS:  cpu time    3.7017: real time    3.7267
    ORTHCH:  cpu time    0.0409: real time    0.0410
       DOS:  cpu time    0.0004: real time    0.0004
    CHARGE:  cpu time    0.3905: real time    0.3910
    MIXING:  cpu time    0.0057: real time    0.0057
    --------------------------------------------
      LOOP:  cpu time    5.2023: real time    5.2315

 eigenvalue-minimisations  :  1415
 total energy-change (2. order) :-0.9878466E+00  (-0.9901156E+00)
 number of electron     206.0000000 magnetization 
 augmentation part        5.5408936 magnetization 

 Broyden mixing:
  rms(total) = 0.20084E-01    rms(broyden)= 0.20028E-01
  rms(prec ) = 0.21429E-01
  weight for this iteration     100.00

 eigenvalues of (default mixing * dielectric matrix)
  average eigenvalue GAMMA=   0.7368
  0.7368

 Free energy of the ion-electron system (eV)
  ---------------------------------------------------
  alpha Z        PSCENC =        82.54348252
  Ewald energy   TEWEN  =     34516.54559737
  -Hartree energ DENC   =    -41032.32804830
  -exchange      EXHF   =         0.00000000
  -V(xc)+E(xc)   XCENC  =       721.27245763
  PAW double counting   =     22842.11698094   -22878.39480436
  entropy T*S    EENTRO =        -0.00009657
  eigenvalues    EBANDS =     -2494.66271468
  atomic energy  EATOM  =      7788.62438962
  Solvation  Ediel_sol  =         0.00000000
  ---------------------------------------------------
  free energy    TOTEN  =      -454.28275584 eV

  energy without entropy =     -454.28265927  energy(sigma->0) =     -454.28270756


--------------------------------------------------------------------------------------------------------




--------------------------------------- Iteration      1(   3)  ---------------------------------------


    POTLOK:  cpu time    0.0996: real time    0.1108
    SETDIJ:  cpu time    0.0800: real time    0.0815
    EDDIAG:  cpu time    0.8702: real time    0.8848
  RMM-DIIS:  cpu time    4.1048: real time    4.1564
    ORTHCH:  cpu time    0.0411: real time    0.0411
       DOS:  cpu time    0.0004: real time    0.0004
    CHARGE:  cpu time    0.3911: real time    0.3912
    MIXING:  cpu time    0.0045: real time    0.0045
    --------------------------------------------
      LOOP:  cpu time    5.5916: real time    5.6708

 eigenvalue-minimisations  :  1570
 total energy-change (2. order) :-0.5232802E-01  (-0.5853657E-01)
 number of electron     206.0000000 magnetization 
 augmentation part        5.5434346 magnetization 

 Broyden mixing:
  rms(total) = 0.15233E-01    rms(broyden)= 0.15219E-01
  rms(prec ) = 0.15774E-01
  weight for this iteration     100.00

 eigenvalues of (default mixing * dielectric matrix)
  average eigenvalue GAMMA=   0.6639
  0.6639  0.6639

 Free energy of the ion-electron system (eV)
  ---------------------------------------------------
  alpha Z        PSCENC =        82.54348252
  Ewald energy   TEWEN  =     34516.54559737
  -Hartree energ DENC   =    -41033.01962787
  -exchange      EXHF   =         0.00000000
  -V(xc)+E(xc)   XCENC  =       721.30470707
  PAW double counting   =     22830.97501014   -22867.26749264
  entropy T*S    EENTRO =        -0.00012573
  eigenvalues    EBANDS =     -2494.04102434
  atomic energy  EATOM  =      7788.62438962
  Solvation  Ediel_sol  =         0.00000000
  ---------------------------------------------------
  free energy    TOTEN  =      -454.33508387 eV

  energy without entropy =     -454.33495814  energy(sigma->0) =     -454.33502100


--------------------------------------------------------------------------------------------------------




--------------------------------------- Iteration      1(   4)  ---------------------------------------


    POTLOK:  cpu time    0.0968: real time    0.0979
    SETDIJ:  cpu time    0.0808: real time    0.0822
    EDDIAG:  cpu time    0.8784: real time    0.8882
  RMM-DIIS:  cpu time    4.0381: real time    4.0972
    ORTHCH:  cpu time    0.0406: real time    0.0408
       DOS:  cpu time    0.0003: real time    0.0003
    CHARGE:  cpu time    0.3842: real time    0.3919
    MIXING:  cpu time    0.0046: real time    0.0046
    --------------------------------------------
      LOOP:  cpu time    5.5239: real time    5.6031

 eigenvalue-minimisations  :  1563
 total energy-change (2. order) :-0.3865811E-02  (-0.4043863E-02)
 number of electron     206.0000000 magnetization 
 augmentation part        5.5459352 magnetization 

 Broyden mixing:
  rms(total) = 0.15267E-01    rms(broyden)= 0.15266E-01
  rms(prec ) = 0.15732E-01
  weight for this iteration     100.00

 eigenvalues of (default mixing * dielectric matrix)
  average eigenvalue GAMMA=   0.9118
  1.0978  1.0978  0.5399

 Free energy of the ion-electron system (eV)
  ---------------------------------------------------
  alpha Z        PSCENC =        82.54348252
  Ewald energy   TEWEN  =     34516.54559737
  -Hartree energ DENC   =    -41033.34368142
  -exchange      EXHF   =         0.00000000
  -V(xc)+E(xc)   XCENC  =       721.31923549
  PAW double counting   =     22822.65032308   -22858.95011098
  entropy T*S    EENTRO =        -0.00010977
  eigenvalues    EBANDS =     -2493.72807558
  atomic energy  EATOM  =      7788.62438962
  Solvation  Ediel_sol  =         0.00000000
  ---------------------------------------------------
  free energy    TOTEN  =      -454.33894968 eV

  energy without entropy =     -454.33883991  energy(sigma->0) =     -454.33889479


--------------------------------------------------------------------------------------------------------




--------------------------------------- Iteration      1(   5)  ---------------------------------------


    POTLOK:  cpu time    0.0973: real time    0.0976
    SETDIJ:  cpu time    0.0800: real time    0.0800
    EDDIAG:  cpu time    0.8651: real time    0.8803
  RMM-DIIS:  cpu time    3.9418: real time    3.9929
    ORTHCH:  cpu time    0.0412: real time    0.0414
       DOS:  cpu time    0.0004: real time    0.0004
    CHARGE:  cpu time    0.3916: real time    0.3920
    MIXING:  cpu time    0.0050: real time    0.0050
    --------------------------------------------
      LOOP:  cpu time    5.4223: real time    5.4895

 eigenvalue-minimisations  :  1525
 total energy-change (2. order) :-0.1336812E-03  (-0.3075890E-03)
 number of electron     206.0000000 magnetization 
 augmentation part        5.5451141 magnetization 

 Broyden mixing:
  rms(total) = 0.76850E-02    rms(broyden)= 0.76846E-02
  rms(prec ) = 0.78863E-02
  weight for this iteration     100.00

 eigenvalues of (default mixing * dielectric matrix)
  average eigenvalue GAMMA=   1.1470
  1.5286  1.5286  0.5667  0.9642

 Free energy of the ion-electron system (eV)
  ---------------------------------------------------
  alpha Z        PSCENC =        82.54348252
  Ewald energy   TEWEN  =     34516.54559737
  -Hartree energ DENC   =    -41034.09450211
  -exchange      EXHF   =         0.00000000
  -V(xc)+E(xc)   XCENC  =       721.35061236
  PAW double counting   =     22799.82623054   -22836.14232484
  entropy T*S    EENTRO =        -0.00011248
  eigenvalues    EBANDS =     -2492.99245634
  atomic energy  EATOM  =      7788.62438962
  Solvation  Ediel_sol  =         0.00000000
  ---------------------------------------------------
  free energy    TOTEN  =      -454.33908336 eV

  energy without entropy =     -454.33897088  energy(sigma->0) =     -454.33902712


--------------------------------------------------------------------------------------------------------




--------------------------------------- Iteration      1(   6)  ---------------------------------------


    POTLOK:  cpu time    0.0988: real time    0.1003
    SETDIJ:  cpu time    0.0799: real time    0.0816
    EDDIAG:  cpu time    0.8670: real time    0.8812
  RMM-DIIS:  cpu time    3.9375: real time    3.9809
    ORTHCH:  cpu time    0.0409: real time    0.0411
       DOS:  cpu time    0.0004: real time    0.0004
    CHARGE:  cpu time    0.3920: real time    0.3921
    MIXING:  cpu time    0.0072: real time    0.0072
    --------------------------------------------
      LOOP:  cpu time    5.4239: real time    5.4848

 eigenvalue-minimisations  :  1517
 total energy-change (2. order) :-0.1627711E-04  (-0.5170893E-04)
 number of electron     206.0000000 magnetization 
 augmentation part        5.5444075 magnetization 

 Broyden mixing:
  rms(total) = 0.10185E-02    rms(broyden)= 0.10155E-02
  rms(prec ) = 0.10633E-02
  weight for this iteration     100.00

 eigenvalues of (default mixing * dielectric matrix)
  average eigenvalue GAMMA=   1.2171
  2.1445  1.2078  1.2078  0.9608  0.5646

 Free energy of the ion-electron system (eV)
  ---------------------------------------------------
  alpha Z        PSCENC =        82.54348252
  Ewald energy   TEWEN  =     34516.54559737
  -Hartree energ DENC   =    -41034.84784056
  -exchange      EXHF   =         0.00000000
  -V(xc)+E(xc)   XCENC  =       721.38202882
  PAW double counting   =     22777.30091674   -22813.63241097
  entropy T*S    EENTRO =        -0.00011412
  eigenvalues    EBANDS =     -2492.25514907
  atomic energy  EATOM  =      7788.62438962
  Solvation  Ediel_sol  =         0.00000000
  ---------------------------------------------------
  free energy    TOTEN  =      -454.33909964 eV

  energy without entropy =     -454.33898552  energy(sigma->0) =     -454.33904258


--------------------------------------------------------------------------------------------------------




--------------------------------------- Iteration      1(   7)  ---------------------------------------


    POTLOK:  cpu time    0.0966: real time    0.1001
    SETDIJ:  cpu time    0.0797: real time    0.0797
    EDDIAG:  cpu time    0.8921: real time    0.8924
  RMM-DIIS:  cpu time    3.0274: real time    3.0291
    ORTHCH:  cpu time    0.0418: real time    0.0418
       DOS:  cpu time    0.0004: real time    0.0004
    CHARGE:  cpu time    0.4026: real time    0.4030
    MIXING:  cpu time    0.0046: real time    0.0046
    --------------------------------------------
      LOOP:  cpu time    4.5452: real time    4.5511

 eigenvalue-minimisations  :  1083
 total energy-change (2. order) :-0.1416257E-04  (-0.3167754E-05)
 number of electron     206.0000000 magnetization 
 augmentation part        5.5442297 magnetization 

 Broyden mixing:
  rms(total) = 0.13762E-02    rms(broyden)= 0.13758E-02
  rms(prec ) = 0.14290E-02
  weight for this iteration     100.00

 eigenvalues of (default mixing * dielectric matrix)
  average eigenvalue GAMMA=   1.3104
  2.2516  1.5241  1.5241  1.0006  1.0006  0.5617

 Free energy of the ion-electron system (eV)
  ---------------------------------------------------
  alpha Z        PSCENC =        82.54348252
  Ewald energy   TEWEN  =     34516.54559737
  -Hartree energ DENC   =    -41034.95382702
  -exchange      EXHF   =         0.00000000
  -V(xc)+E(xc)   XCENC  =       721.38602442
  PAW double counting   =     22776.05551460   -22812.38825466
  entropy T*S    EENTRO =        -0.00011523
  eigenvalues    EBANDS =     -2492.15192541
  atomic energy  EATOM  =      7788.62438962
  Solvation  Ediel_sol  =         0.00000000
  ---------------------------------------------------
  free energy    TOTEN  =      -454.33911380 eV

  energy without entropy =     -454.33899857  energy(sigma->0) =     -454.33905619


--------------------------------------------------------------------------------------------------------




--------------------------------------- Iteration      1(   8)  ---------------------------------------


    POTLOK:  cpu time    0.0987: real time    0.0988
    SETDIJ:  cpu time    0.0791: real time    0.0791
    EDDIAG:  cpu time    0.8893: real time    0.8970
  RMM-DIIS:  cpu time    2.6783: real time    2.6796
    ORTHCH:  cpu time    0.0412: real time    0.0412
       DOS:  cpu time    0.0004: real time    0.0004
    --------------------------------------------
      LOOP:  cpu time    3.7869: real time    3.7960

 eigenvalue-minimisations  :   938
 total energy-change (2. order) :-0.2689118E-05  (-0.1055031E-05)
 number of electron     206.0000000 magnetization 
 augmentation part        5.5442297 magnetization 

 Free energy of the ion-electron system (eV)
  ---------------------------------------------------
  alpha Z        PSCENC =        82.54348252
  Ewald energy   TEWEN  =     34516.54559737
  -Hartree energ DENC   =    -41034.82117861
  -exchange      EXHF   =         0.00000000
  -V(xc)+E(xc)   XCENC  =       721.37989600
  PAW double counting   =     22780.92162495   -22817.25089723
  entropy T*S    EENTRO =        -0.00011490
  eigenvalues    EBANDS =     -2492.28191620
  atomic energy  EATOM  =      7788.62438962
  Solvation  Ediel_sol  =         0.00000000
  ---------------------------------------------------
  free energy    TOTEN  =      -454.33911649 eV

  energy without entropy =     -454.33900159  energy(sigma->0) =     -454.33905904


--------------------------------------------------------------------------------------------------------




 average (electrostatic) potential at core
  the test charge radii are     0.6991  0.7215
  (the norm of the test charge is              1.0000)
       1 -58.2607       2 -58.2604       3 -58.2041       4 -58.0588       5 -58.2039
       6 -58.2606       7 -58.2766       8 -58.1336       9 -58.1332      10 -58.2763
      11 -58.2031      12 -58.1331      13 -60.6874      14 -58.1339      15 -58.2052
      16 -58.0582      17 -58.1330      18 -58.1341      19 -58.0591      20 -58.0653
      21 -58.2029      22 -58.2764      23 -58.2051      24 -58.0659      25 -58.0648
      26 -58.3823      27 -58.2931      28 -58.2222      29 -58.2223      30 -58.2928
      31 -58.2912      32 -58.3153      33 -58.8121      34 -58.3147      35 -58.2946
      36 -58.2217      37 -58.8113      38 -58.8126      39 -58.2226      40 -58.2235
      41 -58.2217      42 -58.3150      43 -58.2226      44 -58.1645      45 -58.1640
      46 -58.2910      47 -58.2948      48 -58.2246      49 -58.1643      50 -58.2225
      51 -81.5750
 
 
 
 E-fermi :  -3.0174     XC(G=0):  -2.2146     alpha+bet : -1.9409


 k-point     1 :       0.0000    0.0000    0.0000
  band No.  band energies     occupation 
      1     -31.7407      2.00000
      2     -22.2713      2.00000
      3     -21.5035      2.00000
      4     -21.5032      2.00000
      5     -21.3966      2.00000
      6     -21.3947      2.00000
      7     -21.3921      2.00000
      8     -20.8745      2.00000
      9     -19.8769      2.00000
     10     -19.8769      2.00000
     11     -19.5497      2.00000
     12     -19.5492      2.00000
     13     -19.5392      2.00000
     14     -19.1916      2.00000
     15     -18.9028      2.00000
     16     -18.8997      2.00000
     17     -18.6456      2.00000
     18     -18.6433      2.00000
     19     -18.6415      2.00000
     20     -17.8845      2.00000
     21     -17.0218      2.00000
     22     -17.0217      2.00000
     23     -16.4781      2.00000
     24     -16.4605      2.00000
     25     -16.4564      2.00000
     26     -16.0501      2.00000
     27     -15.9978      2.00000
     28     -15.9957      2.00000
     29     -15.4978      2.00000
     30     -15.4977      2.00000
     31     -15.4932      2.00000
     32     -15.0899      2.00000
     33     -14.6311      2.00000
     34     -14.6281      2.00000
     35     -14.1500      2.00000
     36     -14.1500      2.00000
     37     -14.1434      2.00000
     38     -13.9649      2.00000
     39     -12.9918      2.00000
     40     -12.9911      2.00000
     41     -12.0316      2.00000
     42     -11.7697      2.00000
     43     -11.7620      2.00000
     44     -11.7609      2.00000
     45     -11.6915      2.00000
     46     -11.6898      2.00000
     47     -11.6519      2.00000
     48     -11.6516      2.00000
     49     -11.6498      2.00000
     50     -11.6472      2.00000
     51     -10.8041      2.00000
     52     -10.8005      2.00000
     53     -10.4290      2.00000
     54     -10.3341      2.00000
     55     -10.2909      2.00000
     56     -10.2873      2.00000
     57     -10.2709      2.00000
     58     -10.0785      2.00000
     59      -9.6866      2.00000
     60      -9.6847      2.00000
     61      -9.3261      2.00000
     62      -9.3254      2.00000
     63      -9.3002      2.00000
     64      -9.2800      2.00000
     65      -9.2797      2.00000
     66      -9.0463      2.00000
     67      -9.0148      2.00000
     68      -8.9951      2.00000
     69      -8.9489      2.00000
     70      -8.9412      2.00000
     71      -8.9409      2.00000
     72      -8.9407      2.00000
     73      -8.9200      2.00000
     74      -8.9181      2.00000
     75      -8.8927      2.00000
     76      -8.4368      2.00000
     77      -7.8042      2.00000
     78      -7.8024      2.00000
     79      -7.3268      2.00000
     80      -7.3240      2.00000
     81      -7.3103      2.00000
     82      -7.3005      2.00000
     83      -7.2995      2.00000
     84      -7.2940      2.00000
     85      -7.1611      2.00000
     86      -7.1605      2.00000
     87      -7.1552      2.00000
     88      -6.7517      2.00000
     89      -6.5114      2.00000
     90      -6.5090      2.00000
     91      -6.2671      2.00000
     92      -6.2467      2.00000
     93      -6.2465      2.00000
     94      -5.9248      2.00000
     95      -5.9180      2.00000
     96      -5.1959      2.00000
     97      -4.7643      2.00000
     98      -4.7641      2.00000
     99      -4.2708      2.00000
    100      -4.2672      2.00000
    101      -4.2659      2.00000
    102      -3.2149      2.00000
    103      -3.2148      2.00000
    104      -2.9165      0.00431
    105      -1.4615      0.00000
    106      -1.4577      0.00000
    107      -1.4568      0.00000
    108      -0.9918      0.00000
    109      -0.9910      0.00000
    110      -0.5431      0.00000
    111       0.4160      0.00000
    112       0.4214      0.00000
    113       0.4221      0.00000
    114       0.5632      0.00000
    115       0.8426      0.00000
    116       0.8442      0.00000
    117       1.2904      0.00000
    118       1.3396      0.00000
    119       1.6729      0.00000
    120       1.8020      0.00000
    121       1.8029      0.00000
    122       1.8041      0.00000
    123       1.8269      0.00000
    124       1.8274      0.00000
    125       2.0331      0.00000
    126       2.1765      0.00000
    127       2.1787      0.00000
    128       2.1798      0.00000
    129       2.3468      0.00000
    130       2.3471      0.00000
    131       2.6002      0.00000
    132       2.6356      0.00000

 k-point     2 :       0.3333    0.0000    0.0000
  band No.  band energies     occupation 
      1     -31.7408      2.00000
      2     -22.1890      2.00000
      3     -21.8703      2.00000
      4     -21.6615      2.00000
      5     -21.4539      2.00000
      6     -21.0348      2.00000
      7     -20.8987      2.00000
      8     -20.7267      2.00000
      9     -20.4203      2.00000
     10     -20.1633      2.00000
     11     -19.7882      2.00000
     12     -19.6997      2.00000
     13     -19.3255      2.00000
     14     -19.2423      2.00000
     15     -19.0613      2.00000
     16     -18.5928      2.00000
     17     -18.4589      2.00000
     18     -18.1213      2.00000
     19     -18.0648      2.00000
     20     -17.5907      2.00000
     21     -17.4980      2.00000
     22     -17.3024      2.00000
     23     -17.2761      2.00000
     24     -16.8518      2.00000
     25     -16.6588      2.00000
     26     -16.1765      2.00000
     27     -15.9781      2.00000
     28     -15.8462      2.00000
     29     -15.2987      2.00000
     30     -15.1714      2.00000
     31     -15.1341      2.00000
     32     -14.8846      2.00000
     33     -14.7822      2.00000
     34     -14.4792      2.00000
     35     -14.4562      2.00000
     36     -13.7671      2.00000
     37     -13.7599      2.00000
     38     -13.1962      2.00000
     39     -13.0892      2.00000
     40     -12.9343      2.00000
     41     -12.9085      2.00000
     42     -12.5847      2.00000
     43     -12.5504      2.00000
     44     -12.3907      2.00000
     45     -12.0217      2.00000
     46     -11.6629      2.00000
     47     -11.4477      2.00000
     48     -11.2932      2.00000
     49     -11.1219      2.00000
     50     -10.9147      2.00000
     51     -10.8502      2.00000
     52     -10.5870      2.00000
     53     -10.5323      2.00000
     54     -10.2865      2.00000
     55     -10.2367      2.00000
     56     -10.1616      2.00000
     57     -10.0515      2.00000
     58      -9.8550      2.00000
     59      -9.8203      2.00000
     60      -9.6552      2.00000
     61      -9.6056      2.00000
     62      -9.5604      2.00000
     63      -9.5276      2.00000
     64      -9.3711      2.00000
     65      -9.3412      2.00000
     66      -9.2610      2.00000
     67      -9.1759      2.00000
     68      -9.0989      2.00000
     69      -9.0835      2.00000
     70      -8.8652      2.00000
     71      -8.7082      2.00000
     72      -8.6659      2.00000
     73      -8.5047      2.00000
     74      -8.4013      2.00000
     75      -8.2889      2.00000
     76      -8.1329      2.00000
     77      -8.0946      2.00000
     78      -8.0656      2.00000
     79      -7.9701      2.00000
     80      -7.8089      2.00000
     81      -7.6202      2.00000
     82      -7.3624      2.00000
     83      -7.3370      2.00000
     84      -7.2711      2.00000
     85      -7.1968      2.00000
     86      -6.9204      2.00000
     87      -6.8721      2.00000
     88      -6.6927      2.00000
     89      -6.5909      2.00000
     90      -6.3508      2.00000
     91      -6.1823      2.00000
     92      -6.0733      2.00000
     93      -5.9232      2.00000
     94      -5.7387      2.00000
     95      -5.6410      2.00000
     96      -5.3212      2.00000
     97      -5.1151      2.00000
     98      -4.9712      2.00000
     99      -4.9226      2.00000
    100      -4.2713      2.00000
    101      -4.1690      2.00000
    102      -3.3364      2.00000
    103      -3.1368      1.99927
    104      -2.8039      0.00000
    105      -1.5912      0.00000
    106      -1.4233      0.00000
    107      -0.8428      0.00000
    108      -0.8189      0.00000
    109      -0.7059      0.00000
    110      -0.6680      0.00000
    111      -0.1291      0.00000
    112      -0.0063      0.00000
    113       0.2935      0.00000
    114       0.7049      0.00000
    115       0.7269      0.00000
    116       1.1001      0.00000
    117       1.1735      0.00000
    118       1.3649      0.00000
    119       1.4624      0.00000
    120       1.5380      0.00000
    121       1.5722      0.00000
    122       1.6369      0.00000
    123       1.8224      0.00000
    124       1.9112      0.00000
    125       2.0390      0.00000
    126       2.2204      0.00000
    127       2.2633      0.00000
    128       2.3283      0.00000
    129       2.3394      0.00000
    130       2.3961      0.00000
    131       2.4580      0.00000
    132       2.7953      0.00000

 k-point     3 :       0.0000    0.3333    0.0000
  band No.  band energies     occupation 
      1     -31.7408      2.00000
      2     -22.1892      2.00000
      3     -21.8695      2.00000
      4     -21.6616      2.00000
      5     -21.4548      2.00000
      6     -21.0350      2.00000
      7     -20.8974      2.00000
      8     -20.7277      2.00000
      9     -20.4204      2.00000
     10     -20.1625      2.00000
     11     -19.7872      2.00000
     12     -19.6994      2.00000
     13     -19.3267      2.00000
     14     -19.2431      2.00000
     15     -19.0620      2.00000
     16     -18.5931      2.00000
     17     -18.4582      2.00000
     18     -18.1217      2.00000
     19     -18.0632      2.00000
     20     -17.5912      2.00000
     21     -17.4981      2.00000
     22     -17.3013      2.00000
     23     -17.2766      2.00000
     24     -16.8517      2.00000
     25     -16.6588      2.00000
     26     -16.1765      2.00000
     27     -15.9782      2.00000
     28     -15.8479      2.00000
     29     -15.2986      2.00000
     30     -15.1701      2.00000
     31     -15.1345      2.00000
     32     -14.8852      2.00000
     33     -14.7820      2.00000
     34     -14.4783      2.00000
     35     -14.4563      2.00000
     36     -13.7680      2.00000
     37     -13.7597      2.00000
     38     -13.1964      2.00000
     39     -13.0897      2.00000
     40     -12.9345      2.00000
     41     -12.9047      2.00000
     42     -12.5855      2.00000
     43     -12.5502      2.00000
     44     -12.3903      2.00000
     45     -12.0224      2.00000
     46     -11.6637      2.00000
     47     -11.4477      2.00000
     48     -11.2964      2.00000
     49     -11.1221      2.00000
     50     -10.9146      2.00000
     51     -10.8503      2.00000
     52     -10.5846      2.00000
     53     -10.5330      2.00000
     54     -10.2855      2.00000
     55     -10.2369      2.00000
     56     -10.1617      2.00000
     57     -10.0495      2.00000
     58      -9.8543      2.00000
     59      -9.8206      2.00000
     60      -9.6535      2.00000
     61      -9.6063      2.00000
     62      -9.5605      2.00000
     63      -9.5283      2.00000
     64      -9.3709      2.00000
     65      -9.3415      2.00000
     66      -9.2597      2.00000
     67      -9.1760      2.00000
     68      -9.1002      2.00000
     69      -9.0823      2.00000
     70      -8.8664      2.00000
     71      -8.7123      2.00000
     72      -8.6647      2.00000
     73      -8.5052      2.00000
     74      -8.4032      2.00000
     75      -8.2881      2.00000
     76      -8.1333      2.00000
     77      -8.0934      2.00000
     78      -8.0658      2.00000
     79      -7.9717      2.00000
     80      -7.8082      2.00000
     81      -7.6202      2.00000
     82      -7.3609      2.00000
     83      -7.3369      2.00000
     84      -7.2671      2.00000
     85      -7.1968      2.00000
     86      -6.9206      2.00000
     87      -6.8727      2.00000
     88      -6.6942      2.00000
     89      -6.5911      2.00000
     90      -6.3483      2.00000
     91      -6.1848      2.00000
     92      -6.0743      2.00000
     93      -5.9225      2.00000
     94      -5.7388      2.00000
     95      -5.6406      2.00000
     96      -5.3226      2.00000
     97      -5.1153      2.00000
     98      -4.9703      2.00000
     99      -4.9227      2.00000
    100      -4.2701      2.00000
    101      -4.1691      2.00000
    102      -3.3368      2.00000
    103      -3.1370      1.99928
    104      -2.8042      0.00000
    105      -1.5915      0.00000
    106      -1.4239      0.00000
    107      -0.8405      0.00000
    108      -0.8190      0.00000
    109      -0.7063      0.00000
    110      -0.6681      0.00000
    111      -0.1289      0.00000
    112      -0.0063      0.00000
    113       0.2929      0.00000
    114       0.7049      0.00000
    115       0.7267      0.00000
    116       1.1006      0.00000
    117       1.1741      0.00000
    118       1.3645      0.00000
    119       1.4629      0.00000
    120       1.5380      0.00000
    121       1.5716      0.00000
    122       1.6363      0.00000
    123       1.8230      0.00000
    124       1.9122      0.00000
    125       2.0399      0.00000
    126       2.2251      0.00000
    127       2.2650      0.00000
    128       2.3353      0.00000
    129       2.4258      0.00000
    130       2.7299      0.00000
    131       3.2548      0.00000
    132       3.6216      0.00000

 k-point     4 :       0.3333    0.3333    0.0000
  band No.  band energies     occupation 
      1     -31.7408      2.00000
      2     -22.1894      2.00000
      3     -21.8687      2.00000
      4     -21.6616      2.00000
      5     -21.4557      2.00000
      6     -21.0352      2.00000
      7     -20.8962      2.00000
      8     -20.7287      2.00000
      9     -20.4205      2.00000
     10     -20.1617      2.00000
     11     -19.7862      2.00000
     12     -19.6992      2.00000
     13     -19.3277      2.00000
     14     -19.2440      2.00000
     15     -19.0627      2.00000
     16     -18.5934      2.00000
     17     -18.4575      2.00000
     18     -18.1219      2.00000
     19     -18.0617      2.00000
     20     -17.5917      2.00000
     21     -17.4983      2.00000
     22     -17.2997      2.00000
     23     -17.2775      2.00000
     24     -16.8517      2.00000
     25     -16.6587      2.00000
     26     -16.1764      2.00000
     27     -15.9784      2.00000
     28     -15.8497      2.00000
     29     -15.2986      2.00000
     30     -15.1688      2.00000
     31     -15.1349      2.00000
     32     -14.8857      2.00000
     33     -14.7819      2.00000
     34     -14.4775      2.00000
     35     -14.4564      2.00000
     36     -13.7682      2.00000
     37     -13.7604      2.00000
     38     -13.1966      2.00000
     39     -13.0903      2.00000
     40     -12.9348      2.00000
     41     -12.9009      2.00000
     42     -12.5863      2.00000
     43     -12.5501      2.00000
     44     -12.3900      2.00000
     45     -12.0231      2.00000
     46     -11.6646      2.00000
     47     -11.4477      2.00000
     48     -11.2997      2.00000
     49     -11.1222      2.00000
     50     -10.9146      2.00000
     51     -10.8505      2.00000
     52     -10.5822      2.00000
     53     -10.5337      2.00000
     54     -10.2845      2.00000
     55     -10.2370      2.00000
     56     -10.1618      2.00000
     57     -10.0475      2.00000
     58      -9.8536      2.00000
     59      -9.8209      2.00000
     60      -9.6517      2.00000
     61      -9.6070      2.00000
     62      -9.5606      2.00000
     63      -9.5290      2.00000
     64      -9.3706      2.00000
     65      -9.3418      2.00000
     66      -9.2584      2.00000
     67      -9.1761      2.00000
     68      -9.1012      2.00000
     69      -9.0812      2.00000
     70      -8.8677      2.00000
     71      -8.7164      2.00000
     72      -8.6635      2.00000
     73      -8.5057      2.00000
     74      -8.4051      2.00000
     75      -8.2873      2.00000
     76      -8.1336      2.00000
     77      -8.0922      2.00000
     78      -8.0661      2.00000
     79      -7.9733      2.00000
     80      -7.8075      2.00000
     81      -7.6202      2.00000
     82      -7.3595      2.00000
     83      -7.3368      2.00000
     84      -7.2631      2.00000
     85      -7.1969      2.00000
     86      -6.9206      2.00000
     87      -6.8735      2.00000
     88      -6.6956      2.00000
     89      -6.5912      2.00000
     90      -6.3457      2.00000
     91      -6.1873      2.00000
     92      -6.0752      2.00000
     93      -5.9217      2.00000
     94      -5.7390      2.00000
     95      -5.6402      2.00000
     96      -5.3241      2.00000
     97      -5.1155      2.00000
     98      -4.9693      2.00000
     99      -4.9230      2.00000
    100      -4.2690      2.00000
    101      -4.1692      2.00000
    102      -3.3372      2.00000
    103      -3.1372      1.99929
    104      -2.8044      0.00000
    105      -1.5917      0.00000
    106      -1.4245      0.00000
    107      -0.8379      0.00000
    108      -0.8196      0.00000
    109      -0.7065      0.00000
    110      -0.6682      0.00000
    111      -0.1286      0.00000
    112      -0.0063      0.00000
    113       0.2922      0.00000
    114       0.7049      0.00000
    115       0.7265      0.00000
    116       1.1014      0.00000
    117       1.1751      0.00000
    118       1.3650      0.00000
    119       1.4638      0.00000
    120       1.5569      0.00000
    121       1.5770      0.00000
    122       1.7151      0.00000
    123       1.8239      0.00000
    124       2.1698      0.00000
    125       2.3346      0.00000
    126       2.3958      0.00000
    127       2.6126      0.00000
    128       2.7568      0.00000
    129       2.8369      0.00000
    130       3.2031      0.00000
    131       3.5966      0.00000
    132       4.1595      0.00000

 k-point     5 :      -0.3333    0.3333    0.0000
  band No.  band energies     occupation 
      1     -31.7408      2.00000
      2     -22.0807      2.00000
      3     -22.0078      2.00000
      4     -21.8020      2.00000
      5     -21.1724      2.00000
      6     -21.1507      2.00000
      7     -20.8677      2.00000
      8     -20.4135      2.00000
      9     -20.3391      2.00000
     10     -20.1727      2.00000
     11     -20.1504      2.00000
     12     -20.1431      2.00000
     13     -19.5672      2.00000
     14     -18.8266      2.00000
     15     -18.6749      2.00000
     16     -18.3730      2.00000
     17     -18.3493      2.00000
     18     -18.3362      2.00000
     19     -17.9304      2.00000
     20     -17.8018      2.00000
     21     -17.6018      2.00000
     22     -17.2618      2.00000
     23     -17.1535      2.00000
     24     -17.1208      2.00000
     25     -16.5434      2.00000
     26     -16.4379      2.00000
     27     -16.2846      2.00000
     28     -15.8088      2.00000
     29     -15.6292      2.00000
     30     -15.1757      2.00000
     31     -14.9698      2.00000
     32     -14.6528      2.00000
     33     -13.9605      2.00000
     34     -13.9399      2.00000
     35     -13.9246      2.00000
     36     -13.8739      2.00000
     37     -13.8642      2.00000
     38     -13.7923      2.00000
     39     -13.6750      2.00000
     40     -13.4951      2.00000
     41     -13.0380      2.00000
     42     -12.4750      2.00000
     43     -12.2542      2.00000
     44     -12.0717      2.00000
     45     -11.8238      2.00000
     46     -11.7735      2.00000
     47     -11.5637      2.00000
     48     -11.5460      2.00000
     49     -11.5228      2.00000
     50     -10.9295      2.00000
     51     -10.8180      2.00000
     52     -10.5306      2.00000
     53     -10.2095      2.00000
     54     -10.2010      2.00000
     55     -10.1944      2.00000
     56     -10.0946      2.00000
     57     -10.0526      2.00000
     58     -10.0221      2.00000
     59      -9.9037      2.00000
     60      -9.7523      2.00000
     61      -9.7484      2.00000
     62      -9.5653      2.00000
     63      -9.4416      2.00000
     64      -9.4077      2.00000
     65      -9.1978      2.00000
     66      -9.0465      2.00000
     67      -9.0334      2.00000
     68      -8.9027      2.00000
     69      -8.8851      2.00000
     70      -8.6868      2.00000
     71      -8.6375      2.00000
     72      -8.6356      2.00000
     73      -8.6239      2.00000
     74      -8.5846      2.00000
     75      -8.3730      2.00000
     76      -8.2523      2.00000
     77      -8.1650      2.00000
     78      -8.0376      2.00000
     79      -7.9841      2.00000
     80      -7.8802      2.00000
     81      -7.8581      2.00000
     82      -7.8548      2.00000
     83      -7.2235      2.00000
     84      -7.1852      2.00000
     85      -7.1283      2.00000
     86      -6.8849      2.00000
     87      -6.7218      2.00000
     88      -6.6139      2.00000
     89      -6.4604      2.00000
     90      -6.2679      2.00000
     91      -6.1026      2.00000
     92      -5.9169      2.00000
     93      -5.9116      2.00000
     94      -5.8975      2.00000
     95      -5.4524      2.00000
     96      -5.4256      2.00000
     97      -5.1222      2.00000
     98      -5.0144      2.00000
     99      -4.9805      2.00000
    100      -4.9579      2.00000
    101      -3.7329      2.00000
    102      -3.4586      2.00000
    103      -3.2802      2.00000
    104      -2.3874      0.00000
    105      -2.2244      0.00000
    106      -0.9291      0.00000
    107      -0.8826      0.00000
    108      -0.8674      0.00000
    109      -0.5386      0.00000
    110      -0.2642      0.00000
    111      -0.2113      0.00000
    112       0.2517      0.00000
    113       0.2559      0.00000
    114       0.2624      0.00000
    115       0.5986      0.00000
    116       0.7927      0.00000
    117       0.9479      0.00000
    118       0.9742      0.00000
    119       1.0620      0.00000
    120       1.7330      0.00000
    121       1.7447      0.00000
    122       1.7671      0.00000
    123       1.8260      0.00000
    124       2.1082      0.00000
    125       2.1158      0.00000
    126       2.1204      0.00000
    127       2.2466      0.00000
    128       2.2481      0.00000
    129       2.3618      0.00000
    130       2.9972      0.00000
    131       3.0119      0.00000
    132       3.0361      0.00000


--------------------------------------------------------------------------------------------------------


 soft charge-density along one line, spin component           1
         0         1         2         3         4         5         6         7         8         9
 total charge-density along one line
 
 pseudopotential strength for first ion, spin component:           1
 10.222  13.593   0.000   0.000   0.000  -0.000  -0.000  -0.000
 13.593  18.076   0.000   0.000   0.000  -0.000  -0.000  -0.000
  0.000   0.000  -4.352  -0.000   0.000   8.513   0.000   0.000
  0.000   0.000  -0.000  -4.345  -0.000   0.000   8.503   0.000
  0.000   0.000   0.000  -0.000  -4.352   0.000   0.000   8.513
 -0.000  -0.000   8.513   0.000   0.000 -18.788  -0.000  -0.000
 -0.000  -0.000   0.000   8.503   0.000  -0.000 -18.777  -0.000
 -0.000  -0.000   0.000   0.000   8.513  -0.000  -0.000 -18.788
 total augmentation occupancy for first ion, spin component:           1
  8.328  -3.724  -0.005   0.005  -0.006  -0.001   0.001  -0.001
 -3.724   1.720   0.002  -0.004   0.002   0.000  -0.000   0.000
 -0.005   0.002   1.838   0.001  -0.004   0.174   0.000  -0.000
  0.005  -0.004   0.001   1.221   0.001   0.000   0.078   0.000
 -0.006   0.002  -0.004   0.001   1.834  -0.000   0.000   0.174
 -0.001   0.000   0.174   0.000  -0.000   0.018   0.000  -0.000
  0.001  -0.000   0.000   0.078   0.000   0.000   0.005   0.000
 -0.001   0.000  -0.000   0.000   0.174  -0.000   0.000   0.018


------------------------ aborting loop because EDIFF is reached ----------------------------------------


    CHARGE:  cpu time    0.4031: real time    0.4036
    FORLOC:  cpu time    0.0277: real time    0.0277
    FORNL :  cpu time    1.9585: real time    1.9611
    STRESS:  cpu time    3.3049: real time    3.3068
    FORCOR:  cpu time    0.1205: real time    0.1208
    FORHAR:  cpu time    0.0477: real time    0.0490
    MIXING:  cpu time    0.0039: real time    0.0039
    OFIELD:  cpu time    0.0001: real time    0.0001

  FORCE on cell =-STRESS in cart. coord.  units (eV):
  Direction    XX          YY          ZZ          XY          YZ          ZX
  --------------------------------------------------------------------------------------
  Alpha Z    82.54348    82.54348    82.54348
  Ewald   41234.50872 41234.50306-47952.48685    -1.08707     0.00005    -0.00147
  Hartree 40516.75729 40516.75736-39998.67411    -0.10291     0.00001     0.00887
  E(xc)    -777.14833  -777.14838  -804.22613    -0.00380    -0.00000    -0.00002
  Local  -83988.92310-83988.92033 85337.52970     0.97253    -0.00004    -0.01146
  n-local  -203.93799  -203.93774  -194.69591    -0.00810    -0.00000    -0.00031
  augment   -12.37984   -12.37923   -14.04630     0.00094     0.00000     0.00006
  Kinetic  3164.13939  3164.13942  3596.32350     0.18230     0.00005     0.00523
  Fock        0.00000     0.00000     0.00000     0.00000     0.00000     0.00000
  -------------------------------------------------------------------------------------
  Total      15.55963    15.55765    52.26738    -0.04611     0.00006     0.00090
  in kB       9.51347     9.51226    31.95733    -0.02819     0.00004     0.00055
  external pressure =       16.99 kB  Pullay stress =        0.00 kB


 VOLUME and BASIS-vectors are now :
 -----------------------------------------------------------------------------
  energy-cutoff  :      400.00
  volume of cell :     2620.42
      direct lattice vectors                 reciprocal lattice vectors
    12.300000191  0.000000000  0.000000000     0.081300812 -0.046939053  0.000000000
     6.150000804 10.652112223  0.000000000     0.000000000  0.093878095  0.000000000
     0.000000000  0.000000000 20.000000000     0.000000000  0.000000000  0.050000000

  length of vectors
    12.300000191 12.300000191 20.000000000     0.093878095  0.093878095  0.050000000


 FORCES acting on ions
    electron-ion (+dipol)            ewald-force                    non-local-force                 convergence-correction
 -----------------------------------------------------------------------------------------------
   -.192E+01 -.136E+01 0.344E+01   0.188E+01 0.132E+01 -.346E+01   0.110E+00 0.375E-01 0.806E-01   -.126E-03 -.576E-03 0.794E-03
   0.104E+01 -.354E+00 0.346E+01   -.821E+00 0.230E+00 -.348E+01   -.590E-01 0.601E-01 0.813E-01   0.213E-04 0.294E-03 0.856E-03
   0.365E+01 0.644E+01 0.385E+01   -.370E+01 -.650E+01 -.381E+01   -.113E+00 0.760E-01 -.739E-01   -.355E-03 -.381E-03 0.291E-03
   -.207E-01 0.129E+02 0.482E+01   0.205E-01 -.131E+02 -.496E+01   0.164E-04 0.134E-01 0.112E+00   -.290E-03 -.425E-03 0.236E-03
   -.375E+01 0.641E+01 0.385E+01   0.379E+01 -.647E+01 -.381E+01   0.115E+00 0.781E-01 -.745E-01   0.174E-03 -.226E-03 0.294E-03
   0.426E+00 0.172E+01 0.345E+01   -.418E+00 -.156E+01 -.347E+01   0.451E-01 -.982E-01 0.809E-01   0.746E-03 0.229E-04 0.751E-03
   0.116E+02 0.666E+01 0.498E+01   -.113E+02 -.648E+01 -.503E+01   0.108E+00 0.588E-01 0.554E-01   -.467E-03 -.375E-03 0.407E-03
   0.209E+02 0.362E+02 0.187E+02   -.214E+02 -.371E+02 -.190E+02   0.637E+00 0.654E+00 0.545E+00   -.347E-03 -.466E-03 0.227E-03
   -.209E+02 0.363E+02 0.187E+02   0.214E+02 -.371E+02 -.190E+02   -.639E+00 0.654E+00 0.546E+00   0.346E-03 -.132E-03 0.226E-03
   -.117E+02 0.680E+01 0.498E+01   0.114E+02 -.661E+01 -.503E+01   -.108E+00 0.659E-01 0.557E-01   -.992E-04 0.101E-03 0.389E-03
   0.743E+01 -.330E-01 0.385E+01   -.750E+01 0.215E-01 -.381E+01   0.107E-01 -.132E+00 -.742E-01   -.199E-03 0.155E-03 0.326E-03
   0.418E+02 -.543E-01 0.187E+02   -.428E+02 0.138E-01 -.190E+02   0.885E+00 0.225E+00 0.545E+00   -.547E-03 0.385E-04 0.192E-03
   -.104E-01 -.399E-05 0.291E+03   0.746E-02 -.997E-04 -.346E+03   0.417E-03 0.581E-04 0.713E+01   0.444E-04 0.109E-03 0.568E-04
   -.418E+02 -.278E-01 0.187E+02   0.429E+02 -.140E-01 -.190E+02   -.886E+00 0.227E+00 0.545E+00   0.266E-03 -.380E-04 0.219E-03
   -.740E+01 0.173E-01 0.385E+01   0.748E+01 -.220E-01 -.381E+01   -.900E-02 -.142E+00 -.741E-01   0.327E-03 0.339E-03 0.274E-03
   0.111E+02 -.645E+01 0.482E+01   -.113E+02 0.656E+01 -.496E+01   0.113E-01 -.652E-02 0.112E+00   -.402E-03 0.132E-03 0.256E-03
   0.210E+02 -.362E+02 0.187E+02   -.214E+02 0.371E+02 -.190E+02   0.247E+00 -.880E+00 0.546E+00   -.184E-04 0.550E-03 0.182E-03
   -.210E+02 -.362E+02 0.187E+02   0.214E+02 0.371E+02 -.190E+02   -.247E+00 -.880E+00 0.545E+00   0.140E-03 0.477E-03 0.350E-03
   -.111E+02 -.642E+01 0.482E+01   0.113E+02 0.654E+01 -.496E+01   -.120E-01 -.695E-02 0.112E+00   0.379E-03 0.395E-03 0.247E-03
   -.524E-03 -.148E+01 0.283E+01   0.146E-03 0.156E+01 -.280E+01   -.123E-02 -.863E-01 -.148E-01   -.559E-04 0.191E-04 0.209E-03
   0.370E+01 -.645E+01 0.385E+01   -.373E+01 0.652E+01 -.381E+01   0.121E+00 0.575E-01 -.745E-01   -.226E-04 -.675E-04 0.270E-03
   0.520E-01 -.135E+02 0.498E+01   -.488E-01 0.131E+02 -.503E+01   0.568E-02 -.125E+00 0.556E-01   0.165E-03 0.198E-03 0.380E-03
   -.373E+01 -.638E+01 0.385E+01   0.375E+01 0.645E+01 -.381E+01   -.126E+00 0.627E-01 -.739E-01   0.164E-03 0.304E-03 0.310E-03
   -.130E+01 0.749E+00 0.283E+01   0.136E+01 -.785E+00 -.280E+01   -.768E-01 0.436E-01 -.147E-01   -.107E-03 -.675E-04 0.248E-03
   0.127E+01 0.734E+00 0.283E+01   -.134E+01 -.771E+00 -.280E+01   0.728E-01 0.427E-01 -.148E-01   -.217E-03 -.196E-03 0.252E-03
   0.121E+01 -.656E-02 -.152E+01   -.139E+01 0.845E-02 0.156E+01   -.149E+00 0.480E-03 -.166E+00   0.171E-02 -.161E-03 0.145E-02
   0.516E+01 0.407E+01 0.355E+01   -.497E+01 -.429E+01 -.351E+01   -.574E-01 0.529E-02 -.349E-01   -.437E-03 -.488E-03 0.474E-03
   0.605E+01 0.171E+02 0.690E+01   -.579E+01 -.171E+02 -.652E+01   -.652E-01 0.161E+00 -.120E+00   -.190E-03 -.398E-03 0.263E-03
   -.610E+01 0.171E+02 0.690E+01   0.584E+01 -.171E+02 -.652E+01   0.669E-01 0.161E+00 -.121E+00   -.230E-03 -.208E-03 0.272E-03
   -.546E+01 0.407E+01 0.355E+01   0.531E+01 -.429E+01 -.351E+01   0.850E-01 0.202E-02 -.347E-01   -.226E-03 -.210E-04 0.462E-03
   0.619E+01 0.246E+01 0.355E+01   -.631E+01 -.220E+01 -.351E+01   -.216E-01 -.512E-01 -.348E-01   -.113E-03 -.205E-03 0.450E-03
   0.283E+02 0.163E+02 0.127E+02   -.286E+02 -.165E+02 -.132E+02   -.158E+00 -.921E-01 0.145E+00   -.209E-03 -.330E-03 0.298E-03
   -.117E-01 0.878E+02 0.587E+02   0.149E-01 -.922E+02 -.663E+02   0.185E-03 -.640E+00 0.330E+01   -.170E-04 -.736E-03 -.844E-04
   -.283E+02 0.164E+02 0.127E+02   0.286E+02 -.165E+02 -.132E+02   0.159E+00 -.908E-01 0.145E+00   0.235E-03 -.253E-03 0.321E-03
   -.618E+01 0.266E+01 0.355E+01   0.627E+01 -.241E+01 -.351E+01   0.435E-01 -.759E-01 -.348E-01   0.885E-04 0.449E-04 0.407E-03
   0.179E+02 -.333E+01 0.690E+01   -.177E+02 0.351E+01 -.652E+01   0.107E+00 -.137E+00 -.120E+00   -.461E-03 0.365E-03 0.347E-03
   0.760E+02 -.439E+02 0.587E+02   -.799E+02 0.461E+02 -.663E+02   -.555E+00 0.321E+00 0.330E+01   -.482E-03 0.397E-03 -.149E-03
   -.760E+02 -.439E+02 0.587E+02   0.799E+02 0.461E+02 -.663E+02   0.553E+00 0.319E+00 0.331E+01   0.610E-03 0.395E-03 0.756E-04
   -.179E+02 -.330E+01 0.690E+01   0.177E+02 0.348E+01 -.652E+01   -.105E+00 -.138E+00 -.121E+00   0.350E-03 0.726E-03 0.272E-03
   0.135E-01 -.609E+00 0.297E+01   -.109E-01 0.845E+00 -.293E+01   -.154E-02 -.154E+00 -.531E-01   0.206E-03 0.575E-03 0.217E-03
   0.118E+02 -.138E+02 0.690E+01   -.119E+02 0.136E+02 -.652E+01   0.172E+00 -.240E-01 -.120E+00   -.432E-03 0.154E-03 0.293E-03
   0.117E-01 -.327E+02 0.127E+02   -.109E-01 0.330E+02 -.132E+02   0.194E-02 0.183E+00 0.145E+00   -.335E-04 0.396E-03 0.291E-03
   -.118E+02 -.138E+02 0.690E+01   0.119E+02 0.135E+02 -.652E+01   -.172E+00 -.226E-01 -.120E+00   0.659E-03 0.323E-03 0.361E-03
   -.385E+01 -.222E+01 0.284E+01   0.379E+01 0.218E+01 -.288E+01   -.202E-01 -.113E-01 0.131E-01   0.254E-04 0.201E-04 0.239E-03
   0.384E+01 -.222E+01 0.284E+01   -.378E+01 0.219E+01 -.288E+01   0.193E-01 -.114E-01 0.129E-01   -.189E-03 -.258E-03 0.232E-03
   0.885E+00 -.672E+01 0.355E+01   -.116E+01 0.671E+01 -.351E+01   0.390E-01 0.570E-01 -.347E-01   0.769E-04 -.232E-03 0.420E-03
   -.860E+00 -.655E+01 0.355E+01   0.113E+01 0.649E+01 -.351E+01   -.385E-01 0.628E-01 -.349E-01   0.251E-03 0.388E-03 0.493E-03
   -.547E+00 0.324E+00 0.297E+01   0.755E+00 -.442E+00 -.293E+01   -.134E+00 0.764E-01 -.535E-01   0.860E-04 -.651E-04 0.224E-03
   -.109E-01 0.444E+01 0.284E+01   0.149E-01 -.437E+01 -.288E+01   -.539E-03 0.227E-01 0.130E-01   -.332E-03 -.321E-03 0.222E-03
   0.507E+00 0.285E+00 0.297E+01   -.708E+00 -.402E+00 -.293E+01   0.134E+00 0.780E-01 -.526E-01   -.140E-03 -.345E-03 0.258E-03
   -.138E-01 -.266E-03 -.722E+03   0.106E-01 -.248E-04 0.846E+03   0.710E-02 -.366E-04 -.638E+02   0.408E-03 0.421E-03 0.213E-02
 -----------------------------------------------------------------------------------------------
   -.316E-02 0.120E-05 0.440E+02   0.356E-13 0.490E-13 0.114E-12   0.327E-02 -.163E-03 -.440E+02   0.733E-03 0.367E-03 0.185E-01
 
 
 POSITION                                       TOTAL-FORCE (eV/Angst)
 -----------------------------------------------------------------------------------
      0.00000      0.00000      8.35995         0.066105      0.006467      0.061701
      2.46000      0.00000      8.35995         0.163426     -0.063444      0.060552
      4.92000      0.00000      8.35995        -0.160883      0.018790     -0.030187
      7.38000      0.00000      8.35995        -0.000577     -0.207761     -0.026621
      9.84000      0.00000      8.35995         0.157524      0.009664     -0.030306
      1.23000      2.13042      8.35995         0.054185      0.054450      0.061126
      3.69000      2.13042      8.35995         0.426544      0.241082      0.003419
      6.15000      2.13042      8.35995         0.091708     -0.205200      0.164724
      8.61000      2.13042      8.35995        -0.097625     -0.205111      0.164814
     11.07000      2.13042      8.35995        -0.431425      0.254207      0.003392
      2.46000      4.26084      8.35995        -0.064691     -0.143522     -0.030245
      4.92000      4.26084      8.35995        -0.130405      0.184145      0.164743
      7.38000      4.26084      8.35995        -0.002468      0.000059    -48.157194
      9.84000      4.26084      8.35995         0.130186      0.184869      0.165050
     12.30000      4.26084      8.35995         0.069606     -0.146639     -0.030296
      3.69000      6.39127      8.35995        -0.180284      0.103695     -0.026594
      6.15000      6.39127      8.35995        -0.226265      0.018127      0.164670
      8.61000      6.39127      8.35995         0.223639      0.022630      0.164999
     11.07000      6.39127      8.35995         0.179651      0.103974     -0.026577
     13.53000      6.39127      8.35995        -0.001684     -0.012924      0.018218
      4.92000      8.52169      8.35995         0.087187      0.128628     -0.030307
      7.38000      8.52169      8.35995         0.008936     -0.495101      0.003367
      9.84000      8.52169      8.35995        -0.096900      0.132765     -0.030196
     12.30000      8.52169      8.35995        -0.014874      0.007491      0.018239
     14.76000      8.52169      8.35995         0.007654      0.005332      0.018240
      1.23524      0.71014      8.36864        -0.329267      0.002206     -0.129741
      3.69000      0.71014      8.36012         0.123743     -0.215367      0.006531
      6.15000      0.71014      8.36012         0.195470      0.250263      0.256612
      8.61000      0.71014      8.36012        -0.192793      0.250525      0.257016
     11.07000      0.71014      8.36012        -0.071205     -0.219269      0.006710
      2.46000      2.84056      8.36012        -0.143183      0.208319      0.006477
      4.92000      2.84056      8.36012        -0.437713     -0.254042     -0.354788
      7.38000      2.84056      8.36012         0.003307     -5.076316     -4.348998
      9.84000      2.84056      8.36012         0.445990     -0.255860     -0.355051
     12.30000      2.84056      8.36012         0.136244      0.177604      0.006702
      3.69000      4.97099      8.36012         0.313496      0.043872      0.256901
      6.15000      4.97099      8.36012        -4.396685      2.540366     -4.350803
      8.61000      4.97099      8.36012         4.395652      2.536166     -4.347226
     11.07000      4.97099      8.36012        -0.314408      0.042284      0.256836
     13.53000      4.97099      8.36012         0.001313      0.082307     -0.021534
      4.92000      7.10141      8.36012         0.119501     -0.292251      0.257017
      7.38000      7.10141      8.36012         0.002747      0.510127     -0.354906
      9.84000      7.10141      8.36012        -0.119705     -0.294363      0.256629
     12.30000      7.10141      8.36012        -0.081301     -0.048758     -0.026547
     14.76000      7.10141      8.36012         0.082883     -0.046062     -0.026485
      6.15000      9.23183      8.36012        -0.240399      0.043506      0.006561
      8.61000      9.23183      8.36012         0.233243      0.005391      0.006631
     11.07000      9.23183      8.36012         0.074915     -0.042457     -0.021450
     13.53000      9.23183      8.36012         0.003161      0.094698     -0.026512
     15.99000      9.23183      8.36012        -0.067507     -0.039647     -0.021611
      7.38000      4.26084      9.36012         0.004229      0.000089     59.986302
 -----------------------------------------------------------------------------------
    total drift:                                0.000844      0.000205      0.000214


--------------------------------------------------------------------------------------------------------



  FREE ENERGIE OF THE ION-ELECTRON SYSTEM (eV)
  ---------------------------------------------------
  free  energy   TOTEN  =      -454.33911649 eV

  energy  without entropy=     -454.33900159  energy(sigma->0) =     -454.33905904
 


--------------------------------------------------------------------------------------------------------


    POTLOK:  cpu time    0.1782: real time    0.1801


--------------------------------------------------------------------------------------------------------


 stress matrix after NEB project (eV)
     15.55963     -0.04611      0.00090
     -0.04611     15.55765      0.00006
      0.00090      0.00006     52.26738
  FORCES: max atom, RMS    59.986302   10.896794
  FORCE total and by dimension   77.818675   59.986302
  Stress total and by dimension   56.710018   52.267384
     LOOP+:  cpu time   46.3347: real time   46.6938
    4ORBIT:  cpu time    0.0000: real time    0.0000

 total amount of memory used by VASP MPI-rank0    90113. kBytes
=======================================================================

   base      :      30000. kBytes
   nonl-proj :       8674. kBytes
   fftplans  :      26248. kBytes
   grid      :      14579. kBytes
   one-center:         21. kBytes
   wavefun   :      10591. kBytes
 
  
  
 General timing and accounting informations for this job:
 ========================================================
  
                  Total CPU time used (sec):       54.014
                            User time (sec):       50.586
                          System time (sec):        3.429
                         Elapsed time (sec):       54.437
  
                   Maximum memory used (kb):      370696.
                   Average memory used (kb):           0.
  
                          Minor page faults:       107642
                          Major page faults:            0
                 Voluntary context switches:         1333
