<?xml version="1.0" encoding="ISO-8859-1"?>
<modeling>
 <generator>
  <i name="program" type="string">vasp </i>
  <i name="version" type="string">5.4.4.18Apr17-6-g9f103f2a35  </i>
  <i name="subversion" type="string">(build Aug 13 2022 23:40:43) complex            parallel </i>
  <i name="platform" type="string">LinuxIFC </i>
  <i name="date" type="string">2024 11 10 </i>
  <i name="time" type="string">04:04:17 </i>
 </generator>
 <incar>
  <i type="int" name="ISTART">     1</i>
  <i type="string" name="PREC">accurate</i>
  <i type="string" name="ALGO"> F          N:DAV,fine,slow</i>
  <i type="logical" name="ADDGRID"> T  </i>
  <i type="int" name="ISPIN">     1</i>
  <i type="int" name="ICHARG">     1</i>
  <i type="int" name="NELM">   300</i>
  <i type="int" name="IBRION">    -1</i>
  <i name="EDIFF">      0.00001000</i>
  <i name="EDIFFG">     -0.00100000</i>
  <i type="int" name="NSW">     1</i>
  <i type="int" name="ISIF">     2</i>
  <i name="ENCUT">    400.00000000</i>
  <i type="logical" name="LREAL"> F  </i>
  <i type="int" name="ISMEAR">     0</i>
  <i name="SIGMA">      0.05000000</i>
  <i type="logical" name="LWAVE"> F  </i>
  <i type="logical" name="LCHARG"> F  </i>
  <v type="int" name="KPOINT_BSE">    -1     0     0     0</v>
  <i type="int" name="NELM">   300</i>
 </incar>
 <structure name="primitive_cell" >
  <crystal>
   <varray name="basis" >
    <v>      12.30000019       0.00000000       0.00000000 </v>
    <v>       6.15000080      10.65211222       0.00000000 </v>
    <v>       0.00000000       0.00000000      20.00000000 </v>
   </varray>
   <i name="volume">   2620.41964732 </i>
   <varray name="rec_basis" >
    <v>       0.08130081      -0.04693905       0.00000000 </v>
    <v>       0.00000000       0.09387809       0.00000000 </v>
    <v>       0.00000000       0.00000000       0.05000000 </v>
   </varray>
  </crystal>
  <varray name="positions" >
   <v>       0.00000000       0.00000000       0.41799748 </v>
   <v>      -0.13333333       0.06666660       0.41800609 </v>
   <v>       0.06666667      -0.13333340       0.41800609 </v>
   <v>       0.06709257       0.06666660       0.41843199 </v>
   <v>      -0.20000000       0.20000000       0.41799748 </v>
   <v>       0.20000000      -0.20000000       0.41799748 </v>
   <v>       0.20000000       0.00000000       0.41799748 </v>
   <v>      -0.20000000       0.00000000       0.41799748 </v>
   <v>       0.00000000       0.20000000       0.41799748 </v>
   <v>       0.00000000      -0.20000000       0.41799748 </v>
   <v>      -0.13333333       0.26666660       0.41800609 </v>
   <v>       0.26666667      -0.13333340       0.41800609 </v>
   <v>      -0.13333333      -0.13333340       0.41800609 </v>
   <v>       0.06666667       0.26666660       0.41800609 </v>
   <v>      -0.33333333       0.26666660       0.41800609 </v>
   <v>       0.26666667       0.06666660       0.41800609 </v>
   <v>      -0.33333333       0.06666660       0.41800609 </v>
   <v>       0.26666667      -0.33333340       0.41800609 </v>
   <v>       0.06666667      -0.33333340       0.41800609 </v>
   <v>      -0.40000000       0.20000000       0.41799748 </v>
   <v>       0.40000000      -0.20000000       0.41799748 </v>
   <v>      -0.20000000       0.40000000       0.41799748 </v>
   <v>       0.20000000      -0.40000000       0.41799748 </v>
   <v>       0.20000000       0.20000000       0.41799748 </v>
   <v>      -0.20000000      -0.20000000       0.41799748 </v>
   <v>      -0.40000000       0.40000000       0.41799748 </v>
   <v>       0.40000000      -0.40000000       0.41799748 </v>
   <v>       0.40000000       0.00000000       0.41799748 </v>
   <v>      -0.40000000       0.00000000       0.41799748 </v>
   <v>       0.00000000       0.40000000       0.41799748 </v>
   <v>       0.00000000      -0.40000000       0.41799748 </v>
   <v>      -0.13333333       0.46666660       0.41800609 </v>
   <v>      -0.33333333       0.46666660       0.41800609 </v>
   <v>       0.46666667      -0.13333340       0.41800609 </v>
   <v>       0.46666667      -0.33333340       0.41800609 </v>
   <v>      -0.33333333      -0.13333340       0.41800609 </v>
   <v>      -0.13333333      -0.33333340       0.41800609 </v>
   <v>       0.26666667       0.26666660       0.41800609 </v>
   <v>       0.46666667       0.26666660       0.41800609 </v>
   <v>       0.26666667       0.46666660       0.41800609 </v>
   <v>       0.06666667       0.46666660       0.41800609 </v>
   <v>       0.46666667       0.46666660       0.41800609 </v>
   <v>       0.46666667       0.06666660       0.41800609 </v>
   <v>       0.40000000       0.40000000       0.41799748 </v>
   <v>      -0.40000000      -0.40000000       0.41799748 </v>
   <v>       0.40000000       0.20000000       0.41799748 </v>
   <v>      -0.40000000      -0.20000000       0.41799748 </v>
   <v>       0.20000000       0.40000000       0.41799748 </v>
   <v>      -0.20000000      -0.40000000       0.41799748 </v>
   <v>       0.40000000       0.40000000       0.46800609 </v>
   <v>      -0.33333333      -0.33333340       0.41800609 </v>
  </varray>
 </structure>
 <varray name="primitive_index" >
  <v type="int" >        1 </v>
  <v type="int" >       30 </v>
  <v type="int" >       46 </v>
  <v type="int" >       26 </v>
  <v type="int" >       10 </v>
  <v type="int" >       22 </v>
  <v type="int" >        2 </v>
  <v type="int" >        5 </v>
  <v type="int" >        6 </v>
  <v type="int" >       21 </v>
  <v type="int" >       35 </v>
  <v type="int" >       47 </v>
  <v type="int" >       50 </v>
  <v type="int" >       31 </v>
  <v type="int" >       34 </v>
  <v type="int" >       27 </v>
  <v type="int" >       29 </v>
  <v type="int" >       42 </v>
  <v type="int" >       41 </v>
  <v type="int" >        9 </v>
  <v type="int" >       23 </v>
  <v type="int" >       15 </v>
  <v type="int" >       17 </v>
  <v type="int" >        7 </v>
  <v type="int" >       25 </v>
  <v type="int" >       14 </v>
  <v type="int" >       18 </v>
  <v type="int" >        3 </v>
  <v type="int" >        4 </v>
  <v type="int" >       11 </v>
  <v type="int" >       16 </v>
  <v type="int" >       40 </v>
  <v type="int" >       39 </v>
  <v type="int" >       48 </v>
  <v type="int" >       43 </v>
  <v type="int" >       49 </v>
  <v type="int" >       45 </v>
  <v type="int" >       32 </v>
  <v type="int" >       33 </v>
  <v type="int" >       37 </v>
  <v type="int" >       36 </v>
  <v type="int" >       38 </v>
  <v type="int" >       28 </v>
  <v type="int" >       13 </v>
  <v type="int" >       19 </v>
  <v type="int" >        8 </v>
  <v type="int" >       24 </v>
  <v type="int" >       12 </v>
  <v type="int" >       20 </v>
  <v type="int" >       51 </v>
  <v type="int" >       44 </v>
 </varray>
 <kpoints>
  <generation param="Gamma">
   <v type="int" name="divisions">       3        3        1 </v>
   <v name="usershift">      0.00000000       0.00000000       0.00000000 </v>
   <v name="genvec1">      0.33333333      -0.00000000       0.00000000 </v>
   <v name="genvec2">      0.00000000       0.33333333       0.00000000 </v>
   <v name="genvec3">      0.00000000       0.00000000       1.00000000 </v>
   <v name="shift">      0.00000000       0.00000000       0.00000000 </v>
  </generation>
  <varray name="kpointlist" >
   <v>       0.00000000       0.00000000       0.00000000 </v>
   <v>       0.33333333       0.00000000       0.00000000 </v>
   <v>       0.00000000       0.33333333       0.00000000 </v>
   <v>       0.33333333       0.33333333       0.00000000 </v>
   <v>      -0.33333333       0.33333333       0.00000000 </v>
  </varray>
  <varray name="weights" >
   <v>       0.11111111 </v>
   <v>       0.22222222 </v>
   <v>       0.22222222 </v>
   <v>       0.22222222 </v>
   <v>       0.22222222 </v>
  </varray>
 </kpoints>
 <parameters>
  <separator name="general" >
   <i type="string" name="SYSTEM"></i>
   <i type="logical" name="LCOMPAT"> F  </i>
  </separator>
  <separator name="electronic" >
   <i type="string" name="PREC">accura</i>
   <i name="ENMAX">    400.00000000</i>
   <i name="ENAUG">    644.87300000</i>
   <i name="EDIFF">      0.00001000</i>
   <i type="int" name="IALGO">    68</i>
   <i type="int" name="IWAVPR">    10</i>
   <i type="int" name="NBANDS">   132</i>
   <i name="NELECT">    206.00000000</i>
   <i type="int" name="TURBO">     0</i>
   <i type="int" name="IRESTART">     0</i>
   <i type="int" name="NREBOOT">     0</i>
   <i type="int" name="NMIN">     0</i>
   <i name="EREF">      0.00000000</i>
   <separator name="electronic smearing" >
    <i type="int" name="ISMEAR">     0</i>
    <i name="SIGMA">      0.05000000</i>
    <i name="KSPACING">      0.50000000</i>
    <i type="logical" name="KGAMMA"> T  </i>
   </separator>
   <separator name="electronic projectors" >
    <i type="logical" name="LREAL"> F  </i>
    <v name="ROPT">      0.00000000      0.00000000</v>
    <i type="int" name="LMAXPAW">  -100</i>
    <i type="int" name="LMAXMIX">     2</i>
    <i type="logical" name="NLSPLINE"> F  </i>
   </separator>
   <separator name="electronic startup" >
    <i type="int" name="ISTART">     1</i>
    <i type="int" name="ICHARG">     1</i>
    <i type="int" name="INIWAV">     1</i>
   </separator>
   <separator name="electronic spin" >
    <i type="int" name="ISPIN">     1</i>
    <i type="logical" name="LNONCOLLINEAR"> F  </i>
    <v name="MAGMOM">      1.00000000      1.00000000      1.00000000      1.00000000      1.00000000      1.00000000      1.00000000      1.00000000      1.00000000      1.00000000      1.00000000      1.00000000      1.00000000      1.00000000      1.00000000      1.00000000      1.00000000      1.00000000      1.00000000      1.00000000
      1.00000000      1.00000000      1.00000000      1.00000000      1.00000000      1.00000000      1.00000000      1.00000000      1.00000000      1.00000000      1.00000000      1.00000000      1.00000000      1.00000000      1.00000000      1.00000000      1.00000000      1.00000000      1.00000000      1.00000000
      1.00000000      1.00000000      1.00000000      1.00000000      1.00000000      1.00000000      1.00000000      1.00000000      1.00000000      1.00000000      1.00000000</v>
    <i name="NUPDOWN">     -1.00000000</i>
    <i type="logical" name="LSORBIT"> F  </i>
    <v name="SAXIS">      0.00000000      0.00000000      1.00000000</v>
    <i type="logical" name="LSPIRAL"> F  </i>
    <v name="QSPIRAL">      0.00000000      0.00000000      0.00000000</v>
    <i type="logical" name="LZEROZ"> F  </i>
   </separator>
   <separator name="electronic exchange-correlation" >
    <i type="logical" name="LASPH"> F  </i>
    <i type="logical" name="LMETAGGA"> F  </i>
   </separator>
   <separator name="electronic convergence" >
    <i type="int" name="NELM">   300</i>
    <i type="int" name="NELMDL">     0</i>
    <i type="int" name="NELMIN">     2</i>
    <i name="ENINI">    400.00000000</i>
    <separator name="electronic convergence detail" >
     <i type="logical" name="LDIAG"> T  </i>
     <i type="logical" name="LSUBROT"> F  </i>
     <i name="WEIMIN">      0.00000000</i>
     <i name="EBREAK">      0.00000002</i>
     <i name="DEPER">      0.30000000</i>
     <i type="int" name="NRMM">     4</i>
     <i name="TIME">      0.40000000</i>
    </separator>
   </separator>
   <separator name="electronic mixer" >
    <i name="AMIX">      0.40000000</i>
    <i name="BMIX">      1.00000000</i>
    <i name="AMIN">      0.10000000</i>
    <i name="AMIX_MAG">      1.60000000</i>
    <i name="BMIX_MAG">      1.00000000</i>
    <separator name="electronic mixer details" >
     <i type="int" name="IMIX">     4</i>
     <i type="logical" name="MIXFIRST"> F  </i>
     <i type="int" name="MAXMIX">   -45</i>
     <i name="WC">    100.00000000</i>
     <i type="int" name="INIMIX">     1</i>
     <i type="int" name="MIXPRE">     1</i>
     <i type="int" name="MREMOVE">     5</i>
    </separator>
   </separator>
   <separator name="electronic dipolcorrection" >
    <i type="logical" name="LDIPOL"> F  </i>
    <i type="logical" name="LMONO"> F  </i>
    <i type="int" name="IDIPOL">     0</i>
    <i name="EPSILON">      1.00000000</i>
    <v name="DIPOL">   -100.00000000   -100.00000000   -100.00000000</v>
    <i name="EFIELD">      0.00000000</i>
   </separator>
  </separator>
  <separator name="grids" >
   <i type="int" name="NGX">    80</i>
   <i type="int" name="NGY">    80</i>
   <i type="int" name="NGZ">   140</i>
   <i type="int" name="NGXF">   160</i>
   <i type="int" name="NGYF">   160</i>
   <i type="int" name="NGZF">   280</i>
   <i type="logical" name="ADDGRID"> T  </i>
  </separator>
  <separator name="ionic" >
   <i type="int" name="NSW">     1</i>
   <i type="int" name="IBRION">    -1</i>
   <i type="int" name="MDALGO">     0</i>
   <i type="int" name="ISIF">     2</i>
   <i name="PSTRESS">      0.00000000</i>
   <i name="EDIFFG">     -0.00100000</i>
   <i type="int" name="NFREE">     0</i>
   <i name="POTIM">      0.50000000</i>
   <i name="SMASS">     -3.00000000</i>
   <i name="SCALEE">      1.00000000</i>
  </separator>
  <separator name="ionic md" >
   <i name="TEBEG">      0.00010000</i>
   <i name="TEEND">      0.00010000</i>
   <i type="int" name="NBLOCK">     1</i>
   <i type="int" name="KBLOCK">     1</i>
   <i type="int" name="NPACO">   256</i>
   <i name="APACO">     16.00000000</i>
  </separator>
  <separator name="symmetry" >
   <i type="int" name="ISYM">     2</i>
   <i name="SYMPREC">      0.00001000</i>
  </separator>
  <separator name="dos" >
   <i type="int" name="LORBIT">     0</i>
   <v name="RWIGS">     -1.00000000     -1.00000000</v>
   <i type="int" name="NEDOS">   301</i>
   <i name="EMIN">     10.00000000</i>
   <i name="EMAX">    -10.00000000</i>
   <i name="EFERMI">      0.00000000</i>
  </separator>
  <separator name="writing" >
   <i type="int" name="NWRITE">     2</i>
   <i type="logical" name="LWAVE"> F  </i>
   <i type="logical" name="LDOWNSAMPLE"> F  </i>
   <i type="logical" name="LCHARG"> F  </i>
   <i type="logical" name="LPARD"> F  </i>
   <i type="logical" name="LVTOT"> F  </i>
   <i type="logical" name="LVHAR"> F  </i>
   <i type="logical" name="LELF"> F  </i>
   <i type="logical" name="LOPTICS"> F  </i>
   <v name="STM">      0.00000000      0.00000000      0.00000000      0.00000000      0.00000000      0.00000000      0.00000000</v>
  </separator>
  <separator name="performance" >
   <i type="int" name="NPAR">     6</i>
   <i type="int" name="NSIM">     4</i>
   <i type="int" name="NBLK">    -1</i>
   <i type="logical" name="LPLANE"> T  </i>
   <i type="logical" name="LSCALAPACK"> T  </i>
   <i type="logical" name="LSCAAWARE"> F  </i>
   <i type="logical" name="LSCALU"> F  </i>
   <i type="logical" name="LASYNC"> F  </i>
   <i type="logical" name="LORBITALREAL"> F  </i>
  </separator>
  <separator name="miscellaneous" >
   <i type="int" name="IDIOT">     3</i>
   <i type="int" name="ISPECIAL">     0</i>
   <i type="logical" name="LMUSIC"> F  </i>
   <v name="POMASS">     12.01100000     16.00000000</v>
   <v name="DARWINR">      0.00000000      0.00000000</v>
   <v name="DARWINV">      1.00000000      1.00000000</v>
   <i type="logical" name="LCORR"> T  </i>
  </separator>
  <i type="logical" name="GGA_COMPAT"> T  </i>
  <i type="logical" name="LBERRY"> F  </i>
  <i type="int" name="ICORELEVEL">     0</i>
  <i type="logical" name="LDAU"> F  </i>
  <i type="int" name="I_CONSTRAINED_M">     0</i>
  <separator name="electronic exchange-correlation" >
   <i type="string" name="GGA">--</i>
   <i type="int" name="VOSKOWN">     0</i>
   <i type="logical" name="LHFCALC"> F  </i>
   <i type="string" name="PRECFOCK"></i>
   <i type="logical" name="LSYMGRAD"> F  </i>
   <i type="logical" name="LHFONE"> F  </i>
   <i type="logical" name="LRHFCALC"> F  </i>
   <i type="logical" name="LTHOMAS"> F  </i>
   <i type="logical" name="LMODELHF"> F  </i>
   <i name="ENCUT4O">     -1.00000000</i>
   <i type="int" name="EXXOEP">     0</i>
   <i type="int" name="FOURORBIT">     0</i>
   <i name="AEXX">      0.00000000</i>
   <i name="HFALPHA">      0.00000000</i>
   <i name="MCALPHA">      0.00000000</i>
   <i name="ALDAX">      1.00000000</i>
   <i name="AGGAX">      1.00000000</i>
   <i name="ALDAC">      1.00000000</i>
   <i name="AGGAC">      1.00000000</i>
   <i type="int" name="NKREDX">     1</i>
   <i type="int" name="NKREDY">     1</i>
   <i type="int" name="NKREDZ">     1</i>
   <i type="logical" name="SHIFTRED"> F  </i>
   <i type="logical" name="ODDONLY"> F  </i>
   <i type="logical" name="EVENONLY"> F  </i>
   <i type="int" name="LMAXFOCK">     0</i>
   <i type="int" name="NMAXFOCKAE">     0</i>
   <i type="logical" name="LFOCKAEDFT"> F  </i>
   <i name="HFSCREEN">      0.00000000</i>
   <i name="HFSCREENC">      0.00000000</i>
   <i type="int" name="NBANDSGWLOW">     0</i>
  </separator>
  <separator name="vdW DFT" >
   <i type="logical" name="LUSE_VDW"> F  </i>
   <i name="Zab_VDW">     -0.84910000</i>
   <i name="PARAM1">      0.12340000</i>
   <i name="PARAM2">      1.00000000</i>
   <i name="PARAM3">      0.00000000</i>
  </separator>
  <separator name="model GW" >
   <i type="int" name="MODEL_GW">     0</i>
   <i name="MODEL_EPS0">     30.82846644</i>
   <i name="MODEL_ALPHA">      1.00000000</i>
  </separator>
  <separator name="linear response parameters" >
   <i type="logical" name="LEPSILON"> F  </i>
   <i type="logical" name="LRPA"> F  </i>
   <i type="logical" name="LNABLA"> F  </i>
   <i type="logical" name="LVEL"> F  </i>
   <i type="int" name="KINTER">     0</i>
   <i name="CSHIFT">      0.10000000</i>
   <i name="OMEGAMAX">     -1.00000000</i>
   <i name="DEG_THRESHOLD">      0.00200000</i>
   <i name="RTIME">     -0.10000000</i>
   <i name="WPLASMAI">      0.00000000</i>
   <v name="DFIELD">      0.00000000      0.00000000      0.00000000</v>
   <v name="WPLASMA">      0.00000000      0.00000000      0.00000000      0.00000000      0.00000000      0.00000000      0.00000000      0.00000000      0.00000000</v>
  </separator>
  <separator name="orbital magnetization" >
   <i type="logical" name="NUCIND"> F  </i>
   <v name="MAGPOS">      0.00000000      0.00000000      0.00000000</v>
   <i type="logical" name="LNICSALL"> T  </i>
   <i type="logical" name="ORBITALMAG"> F  </i>
   <i type="logical" name="LMAGBLOCH"> F  </i>
   <i type="logical" name="LCHIMAG"> F  </i>
   <i type="logical" name="LGAUGE"> T  </i>
   <i type="int" name="MAGATOM">     0</i>
   <v name="MAGDIPOL">      0.00000000      0.00000000      0.00000000</v>
   <v name="AVECCONST">      0.00000000      0.00000000      0.00000000</v>
  </separator>
  <separator name="response functions" >
   <i type="logical" name="LADDER"> F  </i>
   <i type="logical" name="LRPAFORCE"> F  </i>
   <i type="logical" name="LFXC"> F  </i>
   <i type="logical" name="LHARTREE"> T  </i>
   <i type="int" name="IBSE">     0</i>
   <v type="int" name="KPOINT">    -1     0     0     0</v>
   <i type="logical" name="LTCTE"> F  </i>
   <i type="logical" name="LTETE"> F  </i>
   <i type="logical" name="LTRIPLET"> F  </i>
   <i type="logical" name="LFXCEPS"> F  </i>
   <i type="logical" name="LFXHEG"> F  </i>
   <i type="int" name="NATURALO">     2</i>
   <i type="logical" name="L2ORDER"> F  </i>
   <i type="logical" name="LMP2LT"> F  </i>
   <i type="logical" name="LUSEW"> F  </i>
   <i name="ENCUTGW">     -2.00000000</i>
   <i name="ENCUTGWSOFT">     -2.00000000</i>
   <i name="ENCUTLF">     -1.00000000</i>
   <i type="int" name="LMAXMP2">    -1</i>
   <i name="SCISSOR">      0.00000000</i>
   <i type="int" name="NOMEGA">     0</i>
   <i type="int" name="NOMEGAR">     0</i>
   <i type="int" name="NBANDSGW">    -1</i>
   <i type="int" name="NBANDSO">    -1</i>
   <i type="int" name="NBANDSV">    -1</i>
   <i type="int" name="NELM">   300</i>
   <i type="int" name="NELMHF">     1</i>
   <i type="int" name="DIM">     3</i>
   <i type="int" name="ANTIRES">     0</i>
   <i name="OMEGAMAX">    -30.00000000</i>
   <i name="OMEGAMIN">    -30.00000000</i>
   <i name="OMEGATL">   -200.00000000</i>
   <i type="int" name="OMEGAGRID">   140</i>
   <i name="CSHIFT">     -0.10000000</i>
   <i type="logical" name="SELFENERGY"> F  </i>
   <i type="logical" name="LSPECTRAL"> F  </i>
   <i type="logical" name="LSPECTRALGW"> F  </i>
   <i type="logical" name="LSINGLES"> F  </i>
   <i type="logical" name="LFERMIGW"> F  </i>
   <i type="logical" name="ODDONLYGW"> F  </i>
   <i type="logical" name="EVENONLYGW"> F  </i>
   <i type="int" name="NKREDLFX">     1</i>
   <i type="int" name="NKREDLFY">     1</i>
   <i type="int" name="NKREDLFZ">     1</i>
   <i type="int" name="MAXMEM">  2800</i>
   <i type="int" name="TELESCOPE">     0</i>
   <i type="int" name="TAUPAR">     1</i>
   <i type="int" name="OMEGAPAR">    -1</i>
   <i name="LAMBDA">      1.00000000</i>
  </separator>
  <separator name="External order field" >
   <i name="OFIELD_KAPPA">      0.00000000</i>
   <v name="OFIELD_K">      0.00000000      0.00000000      0.00000000</v>
   <i name="OFIELD_Q6_NEAR">      0.00000000</i>
   <i name="OFIELD_Q6_FAR">      0.00000000</i>
   <i name="OFIELD_A">      0.00000000</i>
  </separator>
 </parameters>
 <atominfo>
  <atoms>      51 </atoms>
  <types>       2 </types>
  <array name="atoms" >
   <dimension dim="1">ion</dimension>
   <field type="string">element</field>
   <field type="int">atomtype</field>
   <set>
    <rc><c>C </c><c>   1</c></rc>
    <rc><c>C </c><c>   1</c></rc>
    <rc><c>C </c><c>   1</c></rc>
    <rc><c>C </c><c>   1</c></rc>
    <rc><c>C </c><c>   1</c></rc>
    <rc><c>C </c><c>   1</c></rc>
    <rc><c>C </c><c>   1</c></rc>
    <rc><c>C </c><c>   1</c></rc>
    <rc><c>C </c><c>   1</c></rc>
    <rc><c>C </c><c>   1</c></rc>
    <rc><c>C </c><c>   1</c></rc>
    <rc><c>C </c><c>   1</c></rc>
    <rc><c>C </c><c>   1</c></rc>
    <rc><c>C </c><c>   1</c></rc>
    <rc><c>C </c><c>   1</c></rc>
    <rc><c>C </c><c>   1</c></rc>
    <rc><c>C </c><c>   1</c></rc>
    <rc><c>C </c><c>   1</c></rc>
    <rc><c>C </c><c>   1</c></rc>
    <rc><c>C </c><c>   1</c></rc>
    <rc><c>C </c><c>   1</c></rc>
    <rc><c>C </c><c>   1</c></rc>
    <rc><c>C </c><c>   1</c></rc>
    <rc><c>C </c><c>   1</c></rc>
    <rc><c>C </c><c>   1</c></rc>
    <rc><c>C </c><c>   1</c></rc>
    <rc><c>C </c><c>   1</c></rc>
    <rc><c>C </c><c>   1</c></rc>
    <rc><c>C </c><c>   1</c></rc>
    <rc><c>C </c><c>   1</c></rc>
    <rc><c>C </c><c>   1</c></rc>
    <rc><c>C </c><c>   1</c></rc>
    <rc><c>C </c><c>   1</c></rc>
    <rc><c>C </c><c>   1</c></rc>
    <rc><c>C </c><c>   1</c></rc>
    <rc><c>C </c><c>   1</c></rc>
    <rc><c>C </c><c>   1</c></rc>
    <rc><c>C </c><c>   1</c></rc>
    <rc><c>C </c><c>   1</c></rc>
    <rc><c>C </c><c>   1</c></rc>
    <rc><c>C </c><c>   1</c></rc>
    <rc><c>C </c><c>   1</c></rc>
    <rc><c>C </c><c>   1</c></rc>
    <rc><c>C </c><c>   1</c></rc>
    <rc><c>C </c><c>   1</c></rc>
    <rc><c>C </c><c>   1</c></rc>
    <rc><c>C </c><c>   1</c></rc>
    <rc><c>C </c><c>   1</c></rc>
    <rc><c>C </c><c>   1</c></rc>
    <rc><c>C </c><c>   1</c></rc>
    <rc><c>O </c><c>   2</c></rc>
   </set>
  </array>
  <array name="atomtypes" >
   <dimension dim="1">type</dimension>
   <field type="int">atomspertype</field>
   <field type="string">element</field>
   <field>mass</field>
   <field>valence</field>
   <field type="string">pseudopotential</field>
   <set>
    <rc><c>  50</c><c>C </c><c>     12.01100000</c><c>      4.00000000</c><c>  PAW_PBE C 08Apr2002                   </c></rc>
    <rc><c>   1</c><c>O </c><c>     16.00000000</c><c>      6.00000000</c><c>  PAW_PBE O 08Apr2002                   </c></rc>
   </set>
  </array>
 </atominfo>
 <structure name="initialpos" >
  <crystal>
   <varray name="basis" >
    <v>      12.30000019       0.00000000       0.00000000 </v>
    <v>       6.15000080      10.65211222       0.00000000 </v>
    <v>       0.00000000       0.00000000      20.00000000 </v>
   </varray>
   <i name="volume">   2620.41964732 </i>
   <varray name="rec_basis" >
    <v>       0.08130081      -0.04693905       0.00000000 </v>
    <v>       0.00000000       0.09387809       0.00000000 </v>
    <v>       0.00000000       0.00000000       0.05000000 </v>
   </varray>
  </crystal>
  <varray name="positions" >
   <v>       0.00000000       0.00000000       0.41799748 </v>
   <v>       0.20000000       0.00000000       0.41799748 </v>
   <v>       0.40000000       0.00000000       0.41799748 </v>
   <v>       0.60000000       0.00000000       0.41799748 </v>
   <v>       0.80000000       0.00000000       0.41799748 </v>
   <v>       0.00000000       0.20000000       0.41799748 </v>
   <v>       0.20000000       0.20000000       0.41799748 </v>
   <v>       0.40000000       0.20000000       0.41799748 </v>
   <v>       0.60000000       0.20000000       0.41799748 </v>
   <v>       0.80000000       0.20000000       0.41799748 </v>
   <v>       0.00000000       0.40000000       0.41799748 </v>
   <v>       0.20000000       0.40000000       0.41799748 </v>
   <v>       0.40000000       0.40000000       0.41799748 </v>
   <v>       0.60000000       0.40000000       0.41799748 </v>
   <v>       0.80000000       0.40000000       0.41799748 </v>
   <v>       0.00000000       0.60000000       0.41799748 </v>
   <v>       0.20000000       0.60000000       0.41799748 </v>
   <v>       0.40000000       0.60000000       0.41799748 </v>
   <v>       0.60000000       0.60000000       0.41799748 </v>
   <v>       0.80000000       0.60000000       0.41799748 </v>
   <v>       0.00000000       0.80000000       0.41799748 </v>
   <v>       0.20000000       0.80000000       0.41799748 </v>
   <v>       0.40000000       0.80000000       0.41799748 </v>
   <v>       0.60000000       0.80000000       0.41799748 </v>
   <v>       0.80000000       0.80000000       0.41799748 </v>
   <v>       0.06709257       0.06666660       0.41843199 </v>
   <v>       0.26666667       0.06666660       0.41800609 </v>
   <v>       0.46666667       0.06666660       0.41800609 </v>
   <v>       0.66666667       0.06666660       0.41800609 </v>
   <v>       0.86666667       0.06666660       0.41800609 </v>
   <v>       0.06666667       0.26666660       0.41800609 </v>
   <v>       0.26666667       0.26666660       0.41800609 </v>
   <v>       0.46666667       0.26666660       0.41800609 </v>
   <v>       0.66666667       0.26666660       0.41800609 </v>
   <v>       0.86666667       0.26666660       0.41800609 </v>
   <v>       0.06666667       0.46666660       0.41800609 </v>
   <v>       0.26666667       0.46666660       0.41800609 </v>
   <v>       0.46666667       0.46666660       0.41800609 </v>
   <v>       0.66666667       0.46666660       0.41800609 </v>
   <v>       0.86666667       0.46666660       0.41800609 </v>
   <v>       0.06666667       0.66666660       0.41800609 </v>
   <v>       0.26666667       0.66666660       0.41800609 </v>
   <v>       0.46666667       0.66666660       0.41800609 </v>
   <v>       0.66666667       0.66666660       0.41800609 </v>
   <v>       0.86666667       0.66666660       0.41800609 </v>
   <v>       0.06666667       0.86666660       0.41800609 </v>
   <v>       0.26666667       0.86666660       0.41800609 </v>
   <v>       0.46666667       0.86666660       0.41800609 </v>
   <v>       0.66666667       0.86666660       0.41800609 </v>
   <v>       0.86666667       0.86666660       0.41800609 </v>
   <v>       0.40000000       0.40000000       0.46800609 </v>
  </varray>
  <varray name="velocities" >
   <v>       0.00000000       0.00000000       0.00000000 </v>
   <v>       0.00000000       0.00000000       0.00000000 </v>
   <v>       0.00000000       0.00000000       0.00000000 </v>
   <v>       0.00000000       0.00000000       0.00000000 </v>
   <v>       0.00000000       0.00000000       0.00000000 </v>
   <v>       0.00000000       0.00000000       0.00000000 </v>
   <v>       0.00000000       0.00000000       0.00000000 </v>
   <v>       0.00000000       0.00000000       0.00000000 </v>
   <v>       0.00000000       0.00000000       0.00000000 </v>
   <v>       0.00000000       0.00000000       0.00000000 </v>
   <v>       0.00000000       0.00000000       0.00000000 </v>
   <v>       0.00000000       0.00000000       0.00000000 </v>
   <v>       0.00000000       0.00000000       0.00000000 </v>
   <v>       0.00000000       0.00000000       0.00000000 </v>
   <v>       0.00000000       0.00000000       0.00000000 </v>
   <v>       0.00000000       0.00000000       0.00000000 </v>
   <v>       0.00000000       0.00000000       0.00000000 </v>
   <v>       0.00000000       0.00000000       0.00000000 </v>
   <v>       0.00000000       0.00000000       0.00000000 </v>
   <v>       0.00000000       0.00000000       0.00000000 </v>
   <v>       0.00000000       0.00000000       0.00000000 </v>
   <v>       0.00000000       0.00000000       0.00000000 </v>
   <v>       0.00000000       0.00000000       0.00000000 </v>
   <v>       0.00000000       0.00000000       0.00000000 </v>
   <v>       0.00000000       0.00000000       0.00000000 </v>
   <v>       0.00000000       0.00000000       0.00000000 </v>
   <v>       0.00000000       0.00000000       0.00000000 </v>
   <v>       0.00000000       0.00000000       0.00000000 </v>
   <v>       0.00000000       0.00000000       0.00000000 </v>
   <v>       0.00000000       0.00000000       0.00000000 </v>
   <v>       0.00000000       0.00000000       0.00000000 </v>
   <v>       0.00000000       0.00000000       0.00000000 </v>
   <v>       0.00000000       0.00000000       0.00000000 </v>
   <v>       0.00000000       0.00000000       0.00000000 </v>
   <v>       0.00000000       0.00000000       0.00000000 </v>
   <v>       0.00000000       0.00000000       0.00000000 </v>
   <v>       0.00000000       0.00000000       0.00000000 </v>
   <v>       0.00000000       0.00000000       0.00000000 </v>
   <v>       0.00000000       0.00000000       0.00000000 </v>
   <v>       0.00000000       0.00000000       0.00000000 </v>
   <v>       0.00000000       0.00000000       0.00000000 </v>
   <v>       0.00000000       0.00000000       0.00000000 </v>
   <v>       0.00000000       0.00000000       0.00000000 </v>
   <v>       0.00000000       0.00000000       0.00000000 </v>
   <v>       0.00000000       0.00000000       0.00000000 </v>
   <v>       0.00000000       0.00000000       0.00000000 </v>
   <v>       0.00000000       0.00000000       0.00000000 </v>
   <v>       0.00000000       0.00000000       0.00000000 </v>
   <v>       0.00000000       0.00000000       0.00000000 </v>
   <v>       0.00000000       0.00000000       0.00000000 </v>
   <v>       0.00000000       0.00000000       0.00000000 </v>
  </varray>
 </structure>
 <calculation>
  <scstep>
   <time name="dav">    4.11    4.12</time>
   <time name="total">    4.70    4.72</time>
   <energy>
    <i name="alphaZ">     82.54348252 </i>
    <i name="ewald">  34516.54559737 </i>
    <i name="hartreedc"> -41034.85764869 </i>
    <i name="XCdc">    721.37976407 </i>
    <i name="pawpsdc">  22781.19595426 </i>
    <i name="pawaedc"> -22817.52509957 </i>
    <i name="eentropy">     -0.00050465 </i>
    <i name="bandstr">  -2491.20084419 </i>
    <i name="atom">   7788.62438962 </i>
    <i name="e_fr_energy">   -453.29490926 </i>
    <i name="e_wo_entrp">   -453.29440461 </i>
    <i name="e_0_energy">   -453.29465694 </i>
   </energy>
  </scstep>
  <scstep>
   <time name="diag">    0.88    0.89</time>
   <time name="diis">    3.70    3.73</time>
   <time name="orth">    0.04    0.04</time>
   <time name="total">    5.20    5.23</time>
   <energy>
    <i name="e_fr_energy">   -454.28275584 </i>
    <i name="e_wo_entrp">   -454.28265927 </i>
    <i name="e_0_energy">   -454.28270756 </i>
   </energy>
  </scstep>
  <scstep>
   <time name="diag">    0.87    0.88</time>
   <time name="diis">    4.10    4.16</time>
   <time name="orth">    0.04    0.04</time>
   <time name="total">    5.59    5.67</time>
   <energy>
    <i name="e_fr_energy">   -454.33508387 </i>
    <i name="e_wo_entrp">   -454.33495814 </i>
    <i name="e_0_energy">   -454.33502100 </i>
   </energy>
  </scstep>
  <scstep>
   <time name="diag">    0.88    0.89</time>
   <time name="diis">    4.04    4.10</time>
   <time name="orth">    0.04    0.04</time>
   <time name="total">    5.52    5.60</time>
   <energy>
    <i name="e_fr_energy">   -454.33894968 </i>
    <i name="e_wo_entrp">   -454.33883991 </i>
    <i name="e_0_energy">   -454.33889479 </i>
   </energy>
  </scstep>
  <scstep>
   <time name="diag">    0.87    0.88</time>
   <time name="diis">    3.94    3.99</time>
   <time name="orth">    0.04    0.04</time>
   <time name="total">    5.42    5.49</time>
   <energy>
    <i name="e_fr_energy">   -454.33908336 </i>
    <i name="e_wo_entrp">   -454.33897088 </i>
    <i name="e_0_energy">   -454.33902712 </i>
   </energy>
  </scstep>
  <scstep>
   <time name="diag">    0.87    0.88</time>
   <time name="diis">    3.94    3.98</time>
   <time name="orth">    0.04    0.04</time>
   <time name="total">    5.42    5.48</time>
   <energy>
    <i name="e_fr_energy">   -454.33909964 </i>
    <i name="e_wo_entrp">   -454.33898552 </i>
    <i name="e_0_energy">   -454.33904258 </i>
   </energy>
  </scstep>
  <scstep>
   <time name="diag">    0.89    0.89</time>
   <time name="diis">    3.03    3.03</time>
   <time name="orth">    0.04    0.04</time>
   <time name="total">    4.55    4.55</time>
   <energy>
    <i name="e_fr_energy">   -454.33911380 </i>
    <i name="e_wo_entrp">   -454.33899857 </i>
    <i name="e_0_energy">   -454.33905619 </i>
   </energy>
  </scstep>
  <scstep>
   <time name="diag">    0.89    0.90</time>
   <time name="diis">    2.68    2.68</time>
   <time name="orth">    0.04    0.04</time>
   <time name="total">    3.79    3.80</time>
   <energy>
    <i name="alphaZ">     82.54348252 </i>
    <i name="ewald">  34516.54559737 </i>
    <i name="hartreedc"> -41034.82117861 </i>
    <i name="XCdc">    721.37989600 </i>
    <i name="pawpsdc">  22780.92162495 </i>
    <i name="pawaedc"> -22817.25089723 </i>
    <i name="eentropy">     -0.00011490 </i>
    <i name="bandstr">  -2492.28191620 </i>
    <i name="atom">   7788.62438962 </i>
    <i name="e_fr_energy">   -454.33911649 </i>
    <i name="e_wo_entrp">   -454.33900159 </i>
    <i name="e_0_energy">   -454.33905904 </i>
   </energy>
  </scstep>
  <structure>
   <crystal>
    <varray name="basis" >
     <v>      12.30000019       0.00000000       0.00000000 </v>
     <v>       6.15000080      10.65211222       0.00000000 </v>
     <v>       0.00000000       0.00000000      20.00000000 </v>
    </varray>
    <i name="volume">   2620.41964732 </i>
    <varray name="rec_basis" >
     <v>       0.08130081      -0.04693905       0.00000000 </v>
     <v>       0.00000000       0.09387809       0.00000000 </v>
     <v>       0.00000000       0.00000000       0.05000000 </v>
    </varray>
   </crystal>
   <varray name="positions" >
    <v>       0.00000000       0.00000000       0.41799748 </v>
    <v>       0.20000000       0.00000000       0.41799748 </v>
    <v>       0.40000000       0.00000000       0.41799748 </v>
    <v>       0.60000000       0.00000000       0.41799748 </v>
    <v>       0.80000000       0.00000000       0.41799748 </v>
    <v>       0.00000000       0.20000000       0.41799748 </v>
    <v>       0.20000000       0.20000000       0.41799748 </v>
    <v>       0.40000000       0.20000000       0.41799748 </v>
    <v>       0.60000000       0.20000000       0.41799748 </v>
    <v>       0.80000000       0.20000000       0.41799748 </v>
    <v>       0.00000000       0.40000000       0.41799748 </v>
    <v>       0.20000000       0.40000000       0.41799748 </v>
    <v>       0.40000000       0.40000000       0.41799748 </v>
    <v>       0.60000000       0.40000000       0.41799748 </v>
    <v>       0.80000000       0.40000000       0.41799748 </v>
    <v>       0.00000000       0.60000000       0.41799748 </v>
    <v>       0.20000000       0.60000000       0.41799748 </v>
    <v>       0.40000000       0.60000000       0.41799748 </v>
    <v>       0.60000000       0.60000000       0.41799748 </v>
    <v>       0.80000000       0.60000000       0.41799748 </v>
    <v>       0.00000000       0.80000000       0.41799748 </v>
    <v>       0.20000000       0.80000000       0.41799748 </v>
    <v>       0.40000000       0.80000000       0.41799748 </v>
    <v>       0.60000000       0.80000000       0.41799748 </v>
    <v>       0.80000000       0.80000000       0.41799748 </v>
    <v>       0.06709257       0.06666660       0.41843199 </v>
    <v>       0.26666667       0.06666660       0.41800609 </v>
    <v>       0.46666667       0.06666660       0.41800609 </v>
    <v>       0.66666667       0.06666660       0.41800609 </v>
    <v>       0.86666667       0.06666660       0.41800609 </v>
    <v>       0.06666667       0.26666660       0.41800609 </v>
    <v>       0.26666667       0.26666660       0.41800609 </v>
    <v>       0.46666667       0.26666660       0.41800609 </v>
    <v>       0.66666667       0.26666660       0.41800609 </v>
    <v>       0.86666667       0.26666660       0.41800609 </v>
    <v>       0.06666667       0.46666660       0.41800609 </v>
    <v>       0.26666667       0.46666660       0.41800609 </v>
    <v>       0.46666667       0.46666660       0.41800609 </v>
    <v>       0.66666667       0.46666660       0.41800609 </v>
    <v>       0.86666667       0.46666660       0.41800609 </v>
    <v>       0.06666667       0.66666660       0.41800609 </v>
    <v>       0.26666667       0.66666660       0.41800609 </v>
    <v>       0.46666667       0.66666660       0.41800609 </v>
    <v>       0.66666667       0.66666660       0.41800609 </v>
    <v>       0.86666667       0.66666660       0.41800609 </v>
    <v>       0.06666667       0.86666660       0.41800609 </v>
    <v>       0.26666667       0.86666660       0.41800609 </v>
    <v>       0.46666667       0.86666660       0.41800609 </v>
    <v>       0.66666667       0.86666660       0.41800609 </v>
    <v>       0.86666667       0.86666660       0.41800609 </v>
    <v>       0.40000000       0.40000000       0.46800609 </v>
   </varray>
  </structure>
  <varray name="forces" >
   <v>       0.06610539       0.00646688       0.06170052 </v>
   <v>       0.16342592      -0.06344428       0.06055177 </v>
   <v>      -0.16088291       0.01879032      -0.03018659 </v>
   <v>      -0.00057694      -0.20776140      -0.02662098 </v>
   <v>       0.15752398       0.00966397      -0.03030617 </v>
   <v>       0.05418454       0.05444978       0.06112553 </v>
   <v>       0.42654423       0.24108160       0.00341889 </v>
   <v>       0.09170812      -0.20519986       0.16472394 </v>
   <v>      -0.09762454      -0.20511145       0.16481353 </v>
   <v>      -0.43142471       0.25420672       0.00339150 </v>
   <v>      -0.06469107      -0.14352243      -0.03024523 </v>
   <v>      -0.13040476       0.18414463       0.16474263 </v>
   <v>      -0.00246770       0.00005914     -48.15719434 </v>
   <v>       0.13018635       0.18486894       0.16504987 </v>
   <v>       0.06960591      -0.14663921      -0.03029617 </v>
   <v>      -0.18028394       0.10369537      -0.02659392 </v>
   <v>      -0.22626539       0.01812714       0.16467011 </v>
   <v>       0.22363933       0.02262998       0.16499911 </v>
   <v>       0.17965112       0.10397380      -0.02657695 </v>
   <v>      -0.00168392      -0.01292413       0.01821779 </v>
   <v>       0.08718729       0.12862810      -0.03030660 </v>
   <v>       0.00893555      -0.49510149       0.00336652 </v>
   <v>      -0.09689988       0.13276479      -0.03019593 </v>
   <v>      -0.01487397       0.00749070       0.01823914 </v>
   <v>       0.00765393       0.00533217       0.01823951 </v>
   <v>      -0.32926677       0.00220639      -0.12974139 </v>
   <v>       0.12374272      -0.21536658       0.00653117 </v>
   <v>       0.19547035       0.25026296       0.25661212 </v>
   <v>      -0.19279312       0.25052462       0.25701574 </v>
   <v>      -0.07120524      -0.21926946       0.00671044 </v>
   <v>      -0.14318260       0.20831872       0.00647729 </v>
   <v>      -0.43771349      -0.25404205      -0.35478787 </v>
   <v>       0.00330660      -5.07631585      -4.34899772 </v>
   <v>       0.44599005      -0.25585979      -0.35505083 </v>
   <v>       0.13624431       0.17760352       0.00670228 </v>
   <v>       0.31349581       0.04387197       0.25690107 </v>
   <v>      -4.39668535       2.54036616      -4.35080278 </v>
   <v>       4.39565227       2.53616632      -4.34722588 </v>
   <v>      -0.31440814       0.04228431       0.25683573 </v>
   <v>       0.00131297       0.08230744      -0.02153402 </v>
   <v>       0.11950116      -0.29225140       0.25701656 </v>
   <v>       0.00274737       0.51012673      -0.35490626 </v>
   <v>      -0.11970473      -0.29436348       0.25662896 </v>
   <v>      -0.08130148      -0.04875793      -0.02654684 </v>
   <v>       0.08288284      -0.04606239      -0.02648544 </v>
   <v>      -0.24039870       0.04350616       0.00656142 </v>
   <v>       0.23324340       0.00539073       0.00663053 </v>
   <v>       0.07491540      -0.04245720      -0.02144991 </v>
   <v>       0.00316073       0.09469834      -0.02651216 </v>
   <v>      -0.06750713      -0.03964682      -0.02161132 </v>
   <v>       0.00422887       0.00008882      59.98630164 </v>
  </varray>
  <varray name="stress" >
   <v>       9.51346871      -0.02819429       0.00055138 </v>
   <v>      -0.02819428       9.51226071       0.00003735 </v>
   <v>       0.00055138       0.00003734      31.95733074 </v>
  </varray>
  <energy>
   <i name="e_fr_energy">   -454.33911649 </i>
   <i name="e_wo_entrp">   -454.33905904 </i>
   <i name="e_0_energy">     -0.00011490 </i>
  </energy>
  <time name="totalsc">   46.33   46.69</time>
  <eigenvalues>
   <array>
    <dimension dim="1">band</dimension>
    <dimension dim="2">kpoint</dimension>
    <dimension dim="3">spin</dimension>
    <field>eigene</field>
    <field>occ</field>
    <set>
     <set comment="spin 1">
      <set comment="kpoint 1">
       <r>  -31.7407    1.0000 </r>
       <r>  -22.2713    1.0000 </r>
       <r>  -21.5035    1.0000 </r>
       <r>  -21.5032    1.0000 </r>
       <r>  -21.3966    1.0000 </r>
       <r>  -21.3947    1.0000 </r>
       <r>  -21.3921    1.0000 </r>
       <r>  -20.8745    1.0000 </r>
       <r>  -19.8769    1.0000 </r>
       <r>  -19.8769    1.0000 </r>
       <r>  -19.5497    1.0000 </r>
       <r>  -19.5492    1.0000 </r>
       <r>  -19.5392    1.0000 </r>
       <r>  -19.1916    1.0000 </r>
       <r>  -18.9028    1.0000 </r>
       <r>  -18.8997    1.0000 </r>
       <r>  -18.6456    1.0000 </r>
       <r>  -18.6433    1.0000 </r>
       <r>  -18.6415    1.0000 </r>
       <r>  -17.8845    1.0000 </r>
       <r>  -17.0218    1.0000 </r>
       <r>  -17.0217    1.0000 </r>
       <r>  -16.4781    1.0000 </r>
       <r>  -16.4605    1.0000 </r>
       <r>  -16.4564    1.0000 </r>
       <r>  -16.0501    1.0000 </r>
       <r>  -15.9978    1.0000 </r>
       <r>  -15.9957    1.0000 </r>
       <r>  -15.4978    1.0000 </r>
       <r>  -15.4977    1.0000 </r>
       <r>  -15.4932    1.0000 </r>
       <r>  -15.0899    1.0000 </r>
       <r>  -14.6311    1.0000 </r>
       <r>  -14.6281    1.0000 </r>
       <r>  -14.1500    1.0000 </r>
       <r>  -14.1500    1.0000 </r>
       <r>  -14.1434    1.0000 </r>
       <r>  -13.9649    1.0000 </r>
       <r>  -12.9918    1.0000 </r>
       <r>  -12.9911    1.0000 </r>
       <r>  -12.0316    1.0000 </r>
       <r>  -11.7697    1.0000 </r>
       <r>  -11.7620    1.0000 </r>
       <r>  -11.7609    1.0000 </r>
       <r>  -11.6915    1.0000 </r>
       <r>  -11.6898    1.0000 </r>
       <r>  -11.6519    1.0000 </r>
       <r>  -11.6516    1.0000 </r>
       <r>  -11.6498    1.0000 </r>
       <r>  -11.6472    1.0000 </r>
       <r>  -10.8041    1.0000 </r>
       <r>  -10.8005    1.0000 </r>
       <r>  -10.4290    1.0000 </r>
       <r>  -10.3341    1.0000 </r>
       <r>  -10.2909    1.0000 </r>
       <r>  -10.2873    1.0000 </r>
       <r>  -10.2709    1.0000 </r>
       <r>  -10.0785    1.0000 </r>
       <r>   -9.6866    1.0000 </r>
       <r>   -9.6847    1.0000 </r>
       <r>   -9.3261    1.0000 </r>
       <r>   -9.3254    1.0000 </r>
       <r>   -9.3002    1.0000 </r>
       <r>   -9.2800    1.0000 </r>
       <r>   -9.2797    1.0000 </r>
       <r>   -9.0463    1.0000 </r>
       <r>   -9.0148    1.0000 </r>
       <r>   -8.9951    1.0000 </r>
       <r>   -8.9489    1.0000 </r>
       <r>   -8.9412    1.0000 </r>
       <r>   -8.9409    1.0000 </r>
       <r>   -8.9407    1.0000 </r>
       <r>   -8.9200    1.0000 </r>
       <r>   -8.9181    1.0000 </r>
       <r>   -8.8927    1.0000 </r>
       <r>   -8.4368    1.0000 </r>
       <r>   -7.8042    1.0000 </r>
       <r>   -7.8024    1.0000 </r>
       <r>   -7.3268    1.0000 </r>
       <r>   -7.3240    1.0000 </r>
       <r>   -7.3103    1.0000 </r>
       <r>   -7.3005    1.0000 </r>
       <r>   -7.2995    1.0000 </r>
       <r>   -7.2940    1.0000 </r>
       <r>   -7.1611    1.0000 </r>
       <r>   -7.1605    1.0000 </r>
       <r>   -7.1552    1.0000 </r>
       <r>   -6.7517    1.0000 </r>
       <r>   -6.5114    1.0000 </r>
       <r>   -6.5090    1.0000 </r>
       <r>   -6.2671    1.0000 </r>
       <r>   -6.2467    1.0000 </r>
       <r>   -6.2465    1.0000 </r>
       <r>   -5.9248    1.0000 </r>
       <r>   -5.9180    1.0000 </r>
       <r>   -5.1959    1.0000 </r>
       <r>   -4.7643    1.0000 </r>
       <r>   -4.7641    1.0000 </r>
       <r>   -4.2708    1.0000 </r>
       <r>   -4.2672    1.0000 </r>
       <r>   -4.2659    1.0000 </r>
       <r>   -3.2149    1.0000 </r>
       <r>   -3.2148    1.0000 </r>
       <r>   -2.9165    0.0022 </r>
       <r>   -1.4615    0.0000 </r>
       <r>   -1.4577    0.0000 </r>
       <r>   -1.4568    0.0000 </r>
       <r>   -0.9918    0.0000 </r>
       <r>   -0.9910    0.0000 </r>
       <r>   -0.5431    0.0000 </r>
       <r>    0.4160    0.0000 </r>
       <r>    0.4214    0.0000 </r>
       <r>    0.4221    0.0000 </r>
       <r>    0.5632    0.0000 </r>
       <r>    0.8426    0.0000 </r>
       <r>    0.8442    0.0000 </r>
       <r>    1.2904    0.0000 </r>
       <r>    1.3396    0.0000 </r>
       <r>    1.6729    0.0000 </r>
       <r>    1.8020    0.0000 </r>
       <r>    1.8029    0.0000 </r>
       <r>    1.8041    0.0000 </r>
       <r>    1.8269    0.0000 </r>
       <r>    1.8274    0.0000 </r>
       <r>    2.0331    0.0000 </r>
       <r>    2.1765    0.0000 </r>
       <r>    2.1787    0.0000 </r>
       <r>    2.1798    0.0000 </r>
       <r>    2.3468    0.0000 </r>
       <r>    2.3471    0.0000 </r>
       <r>    2.6002    0.0000 </r>
       <r>    2.6356    0.0000 </r>
      </set>
      <set comment="kpoint 2">
       <r>  -31.7408    1.0000 </r>
       <r>  -22.1890    1.0000 </r>
       <r>  -21.8703    1.0000 </r>
       <r>  -21.6615    1.0000 </r>
       <r>  -21.4539    1.0000 </r>
       <r>  -21.0348    1.0000 </r>
       <r>  -20.8987    1.0000 </r>
       <r>  -20.7267    1.0000 </r>
       <r>  -20.4203    1.0000 </r>
       <r>  -20.1633    1.0000 </r>
       <r>  -19.7882    1.0000 </r>
       <r>  -19.6997    1.0000 </r>
       <r>  -19.3255    1.0000 </r>
       <r>  -19.2423    1.0000 </r>
       <r>  -19.0613    1.0000 </r>
       <r>  -18.5928    1.0000 </r>
       <r>  -18.4589    1.0000 </r>
       <r>  -18.1213    1.0000 </r>
       <r>  -18.0648    1.0000 </r>
       <r>  -17.5907    1.0000 </r>
       <r>  -17.4980    1.0000 </r>
       <r>  -17.3024    1.0000 </r>
       <r>  -17.2761    1.0000 </r>
       <r>  -16.8518    1.0000 </r>
       <r>  -16.6588    1.0000 </r>
       <r>  -16.1765    1.0000 </r>
       <r>  -15.9781    1.0000 </r>
       <r>  -15.8462    1.0000 </r>
       <r>  -15.2987    1.0000 </r>
       <r>  -15.1714    1.0000 </r>
       <r>  -15.1341    1.0000 </r>
       <r>  -14.8846    1.0000 </r>
       <r>  -14.7822    1.0000 </r>
       <r>  -14.4792    1.0000 </r>
       <r>  -14.4562    1.0000 </r>
       <r>  -13.7671    1.0000 </r>
       <r>  -13.7599    1.0000 </r>
       <r>  -13.1962    1.0000 </r>
       <r>  -13.0892    1.0000 </r>
       <r>  -12.9343    1.0000 </r>
       <r>  -12.9085    1.0000 </r>
       <r>  -12.5847    1.0000 </r>
       <r>  -12.5504    1.0000 </r>
       <r>  -12.3907    1.0000 </r>
       <r>  -12.0217    1.0000 </r>
       <r>  -11.6629    1.0000 </r>
       <r>  -11.4477    1.0000 </r>
       <r>  -11.2932    1.0000 </r>
       <r>  -11.1219    1.0000 </r>
       <r>  -10.9147    1.0000 </r>
       <r>  -10.8502    1.0000 </r>
       <r>  -10.5870    1.0000 </r>
       <r>  -10.5323    1.0000 </r>
       <r>  -10.2865    1.0000 </r>
       <r>  -10.2367    1.0000 </r>
       <r>  -10.1616    1.0000 </r>
       <r>  -10.0515    1.0000 </r>
       <r>   -9.8550    1.0000 </r>
       <r>   -9.8203    1.0000 </r>
       <r>   -9.6552    1.0000 </r>
       <r>   -9.6056    1.0000 </r>
       <r>   -9.5604    1.0000 </r>
       <r>   -9.5276    1.0000 </r>
       <r>   -9.3711    1.0000 </r>
       <r>   -9.3412    1.0000 </r>
       <r>   -9.2610    1.0000 </r>
       <r>   -9.1759    1.0000 </r>
       <r>   -9.0989    1.0000 </r>
       <r>   -9.0835    1.0000 </r>
       <r>   -8.8652    1.0000 </r>
       <r>   -8.7082    1.0000 </r>
       <r>   -8.6659    1.0000 </r>
       <r>   -8.5047    1.0000 </r>
       <r>   -8.4013    1.0000 </r>
       <r>   -8.2889    1.0000 </r>
       <r>   -8.1329    1.0000 </r>
       <r>   -8.0946    1.0000 </r>
       <r>   -8.0656    1.0000 </r>
       <r>   -7.9701    1.0000 </r>
       <r>   -7.8089    1.0000 </r>
       <r>   -7.6202    1.0000 </r>
       <r>   -7.3624    1.0000 </r>
       <r>   -7.3370    1.0000 </r>
       <r>   -7.2711    1.0000 </r>
       <r>   -7.1968    1.0000 </r>
       <r>   -6.9204    1.0000 </r>
       <r>   -6.8721    1.0000 </r>
       <r>   -6.6927    1.0000 </r>
       <r>   -6.5909    1.0000 </r>
       <r>   -6.3508    1.0000 </r>
       <r>   -6.1823    1.0000 </r>
       <r>   -6.0733    1.0000 </r>
       <r>   -5.9232    1.0000 </r>
       <r>   -5.7387    1.0000 </r>
       <r>   -5.6410    1.0000 </r>
       <r>   -5.3212    1.0000 </r>
       <r>   -5.1151    1.0000 </r>
       <r>   -4.9712    1.0000 </r>
       <r>   -4.9226    1.0000 </r>
       <r>   -4.2713    1.0000 </r>
       <r>   -4.1690    1.0000 </r>
       <r>   -3.3364    1.0000 </r>
       <r>   -3.1368    0.9996 </r>
       <r>   -2.8039    0.0000 </r>
       <r>   -1.5912    0.0000 </r>
       <r>   -1.4233    0.0000 </r>
       <r>   -0.8428    0.0000 </r>
       <r>   -0.8189    0.0000 </r>
       <r>   -0.7059    0.0000 </r>
       <r>   -0.6680    0.0000 </r>
       <r>   -0.1291    0.0000 </r>
       <r>   -0.0063    0.0000 </r>
       <r>    0.2935    0.0000 </r>
       <r>    0.7049    0.0000 </r>
       <r>    0.7269    0.0000 </r>
       <r>    1.1001    0.0000 </r>
       <r>    1.1735    0.0000 </r>
       <r>    1.3649    0.0000 </r>
       <r>    1.4624    0.0000 </r>
       <r>    1.5380    0.0000 </r>
       <r>    1.5722    0.0000 </r>
       <r>    1.6369    0.0000 </r>
       <r>    1.8224    0.0000 </r>
       <r>    1.9112    0.0000 </r>
       <r>    2.0390    0.0000 </r>
       <r>    2.2204    0.0000 </r>
       <r>    2.2633    0.0000 </r>
       <r>    2.3283    0.0000 </r>
       <r>    2.3394    0.0000 </r>
       <r>    2.3961    0.0000 </r>
       <r>    2.4580    0.0000 </r>
       <r>    2.7953    0.0000 </r>
      </set>
      <set comment="kpoint 3">
       <r>  -31.7408    1.0000 </r>
       <r>  -22.1892    1.0000 </r>
       <r>  -21.8695    1.0000 </r>
       <r>  -21.6616    1.0000 </r>
       <r>  -21.4548    1.0000 </r>
       <r>  -21.0350    1.0000 </r>
       <r>  -20.8974    1.0000 </r>
       <r>  -20.7277    1.0000 </r>
       <r>  -20.4204    1.0000 </r>
       <r>  -20.1625    1.0000 </r>
       <r>  -19.7872    1.0000 </r>
       <r>  -19.6994    1.0000 </r>
       <r>  -19.3267    1.0000 </r>
       <r>  -19.2431    1.0000 </r>
       <r>  -19.0620    1.0000 </r>
       <r>  -18.5931    1.0000 </r>
       <r>  -18.4582    1.0000 </r>
       <r>  -18.1217    1.0000 </r>
       <r>  -18.0632    1.0000 </r>
       <r>  -17.5912    1.0000 </r>
       <r>  -17.4981    1.0000 </r>
       <r>  -17.3013    1.0000 </r>
       <r>  -17.2766    1.0000 </r>
       <r>  -16.8517    1.0000 </r>
       <r>  -16.6588    1.0000 </r>
       <r>  -16.1765    1.0000 </r>
       <r>  -15.9782    1.0000 </r>
       <r>  -15.8479    1.0000 </r>
       <r>  -15.2986    1.0000 </r>
       <r>  -15.1701    1.0000 </r>
       <r>  -15.1345    1.0000 </r>
       <r>  -14.8852    1.0000 </r>
       <r>  -14.7820    1.0000 </r>
       <r>  -14.4783    1.0000 </r>
       <r>  -14.4563    1.0000 </r>
       <r>  -13.7680    1.0000 </r>
       <r>  -13.7597    1.0000 </r>
       <r>  -13.1964    1.0000 </r>
       <r>  -13.0897    1.0000 </r>
       <r>  -12.9345    1.0000 </r>
       <r>  -12.9047    1.0000 </r>
       <r>  -12.5855    1.0000 </r>
       <r>  -12.5502    1.0000 </r>
       <r>  -12.3903    1.0000 </r>
       <r>  -12.0224    1.0000 </r>
       <r>  -11.6637    1.0000 </r>
       <r>  -11.4477    1.0000 </r>
       <r>  -11.2964    1.0000 </r>
       <r>  -11.1221    1.0000 </r>
       <r>  -10.9146    1.0000 </r>
       <r>  -10.8503    1.0000 </r>
       <r>  -10.5846    1.0000 </r>
       <r>  -10.5330    1.0000 </r>
       <r>  -10.2855    1.0000 </r>
       <r>  -10.2369    1.0000 </r>
       <r>  -10.1617    1.0000 </r>
       <r>  -10.0495    1.0000 </r>
       <r>   -9.8543    1.0000 </r>
       <r>   -9.8206    1.0000 </r>
       <r>   -9.6535    1.0000 </r>
       <r>   -9.6063    1.0000 </r>
       <r>   -9.5605    1.0000 </r>
       <r>   -9.5283    1.0000 </r>
       <r>   -9.3709    1.0000 </r>
       <r>   -9.3415    1.0000 </r>
       <r>   -9.2597    1.0000 </r>
       <r>   -9.1760    1.0000 </r>
       <r>   -9.1002    1.0000 </r>
       <r>   -9.0823    1.0000 </r>
       <r>   -8.8664    1.0000 </r>
       <r>   -8.7123    1.0000 </r>
       <r>   -8.6647    1.0000 </r>
       <r>   -8.5052    1.0000 </r>
       <r>   -8.4032    1.0000 </r>
       <r>   -8.2881    1.0000 </r>
       <r>   -8.1333    1.0000 </r>
       <r>   -8.0934    1.0000 </r>
       <r>   -8.0658    1.0000 </r>
       <r>   -7.9717    1.0000 </r>
       <r>   -7.8082    1.0000 </r>
       <r>   -7.6202    1.0000 </r>
       <r>   -7.3609    1.0000 </r>
       <r>   -7.3369    1.0000 </r>
       <r>   -7.2671    1.0000 </r>
       <r>   -7.1968    1.0000 </r>
       <r>   -6.9206    1.0000 </r>
       <r>   -6.8727    1.0000 </r>
       <r>   -6.6942    1.0000 </r>
       <r>   -6.5911    1.0000 </r>
       <r>   -6.3483    1.0000 </r>
       <r>   -6.1848    1.0000 </r>
       <r>   -6.0743    1.0000 </r>
       <r>   -5.9225    1.0000 </r>
       <r>   -5.7388    1.0000 </r>
       <r>   -5.6406    1.0000 </r>
       <r>   -5.3226    1.0000 </r>
       <r>   -5.1153    1.0000 </r>
       <r>   -4.9703    1.0000 </r>
       <r>   -4.9227    1.0000 </r>
       <r>   -4.2701    1.0000 </r>
       <r>   -4.1691    1.0000 </r>
       <r>   -3.3368    1.0000 </r>
       <r>   -3.1370    0.9996 </r>
       <r>   -2.8042    0.0000 </r>
       <r>   -1.5915    0.0000 </r>
       <r>   -1.4239    0.0000 </r>
       <r>   -0.8405    0.0000 </r>
       <r>   -0.8190    0.0000 </r>
       <r>   -0.7063    0.0000 </r>
       <r>   -0.6681    0.0000 </r>
       <r>   -0.1289    0.0000 </r>
       <r>   -0.0063    0.0000 </r>
       <r>    0.2929    0.0000 </r>
       <r>    0.7049    0.0000 </r>
       <r>    0.7267    0.0000 </r>
       <r>    1.1006    0.0000 </r>
       <r>    1.1741    0.0000 </r>
       <r>    1.3645    0.0000 </r>
       <r>    1.4629    0.0000 </r>
       <r>    1.5380    0.0000 </r>
       <r>    1.5716    0.0000 </r>
       <r>    1.6363    0.0000 </r>
       <r>    1.8230    0.0000 </r>
       <r>    1.9122    0.0000 </r>
       <r>    2.0399    0.0000 </r>
       <r>    2.2251    0.0000 </r>
       <r>    2.2650    0.0000 </r>
       <r>    2.3353    0.0000 </r>
       <r>    2.4258    0.0000 </r>
       <r>    2.7299    0.0000 </r>
       <r>    3.2548    0.0000 </r>
       <r>    3.6216    0.0000 </r>
      </set>
      <set comment="kpoint 4">
       <r>  -31.7408    1.0000 </r>
       <r>  -22.1894    1.0000 </r>
       <r>  -21.8687    1.0000 </r>
       <r>  -21.6616    1.0000 </r>
       <r>  -21.4557    1.0000 </r>
       <r>  -21.0352    1.0000 </r>
       <r>  -20.8962    1.0000 </r>
       <r>  -20.7287    1.0000 </r>
       <r>  -20.4205    1.0000 </r>
       <r>  -20.1617    1.0000 </r>
       <r>  -19.7862    1.0000 </r>
       <r>  -19.6992    1.0000 </r>
       <r>  -19.3277    1.0000 </r>
       <r>  -19.2440    1.0000 </r>
       <r>  -19.0627    1.0000 </r>
       <r>  -18.5934    1.0000 </r>
       <r>  -18.4575    1.0000 </r>
       <r>  -18.1219    1.0000 </r>
       <r>  -18.0617    1.0000 </r>
       <r>  -17.5917    1.0000 </r>
       <r>  -17.4983    1.0000 </r>
       <r>  -17.2997    1.0000 </r>
       <r>  -17.2775    1.0000 </r>
       <r>  -16.8517    1.0000 </r>
       <r>  -16.6587    1.0000 </r>
       <r>  -16.1764    1.0000 </r>
       <r>  -15.9784    1.0000 </r>
       <r>  -15.8497    1.0000 </r>
       <r>  -15.2986    1.0000 </r>
       <r>  -15.1688    1.0000 </r>
       <r>  -15.1349    1.0000 </r>
       <r>  -14.8857    1.0000 </r>
       <r>  -14.7819    1.0000 </r>
       <r>  -14.4775    1.0000 </r>
       <r>  -14.4564    1.0000 </r>
       <r>  -13.7682    1.0000 </r>
       <r>  -13.7604    1.0000 </r>
       <r>  -13.1966    1.0000 </r>
       <r>  -13.0903    1.0000 </r>
       <r>  -12.9348    1.0000 </r>
       <r>  -12.9009    1.0000 </r>
       <r>  -12.5863    1.0000 </r>
       <r>  -12.5501    1.0000 </r>
       <r>  -12.3900    1.0000 </r>
       <r>  -12.0231    1.0000 </r>
       <r>  -11.6646    1.0000 </r>
       <r>  -11.4477    1.0000 </r>
       <r>  -11.2997    1.0000 </r>
       <r>  -11.1222    1.0000 </r>
       <r>  -10.9146    1.0000 </r>
       <r>  -10.8505    1.0000 </r>
       <r>  -10.5822    1.0000 </r>
       <r>  -10.5337    1.0000 </r>
       <r>  -10.2845    1.0000 </r>
       <r>  -10.2370    1.0000 </r>
       <r>  -10.1618    1.0000 </r>
       <r>  -10.0475    1.0000 </r>
       <r>   -9.8536    1.0000 </r>
       <r>   -9.8209    1.0000 </r>
       <r>   -9.6517    1.0000 </r>
       <r>   -9.6070    1.0000 </r>
       <r>   -9.5606    1.0000 </r>
       <r>   -9.5290    1.0000 </r>
       <r>   -9.3706    1.0000 </r>
       <r>   -9.3418    1.0000 </r>
       <r>   -9.2584    1.0000 </r>
       <r>   -9.1761    1.0000 </r>
       <r>   -9.1012    1.0000 </r>
       <r>   -9.0812    1.0000 </r>
       <r>   -8.8677    1.0000 </r>
       <r>   -8.7164    1.0000 </r>
       <r>   -8.6635    1.0000 </r>
       <r>   -8.5057    1.0000 </r>
       <r>   -8.4051    1.0000 </r>
       <r>   -8.2873    1.0000 </r>
       <r>   -8.1336    1.0000 </r>
       <r>   -8.0922    1.0000 </r>
       <r>   -8.0661    1.0000 </r>
       <r>   -7.9733    1.0000 </r>
       <r>   -7.8075    1.0000 </r>
       <r>   -7.6202    1.0000 </r>
       <r>   -7.3595    1.0000 </r>
       <r>   -7.3368    1.0000 </r>
       <r>   -7.2631    1.0000 </r>
       <r>   -7.1969    1.0000 </r>
       <r>   -6.9206    1.0000 </r>
       <r>   -6.8735    1.0000 </r>
       <r>   -6.6956    1.0000 </r>
       <r>   -6.5912    1.0000 </r>
       <r>   -6.3457    1.0000 </r>
       <r>   -6.1873    1.0000 </r>
       <r>   -6.0752    1.0000 </r>
       <r>   -5.9217    1.0000 </r>
       <r>   -5.7390    1.0000 </r>
       <r>   -5.6402    1.0000 </r>
       <r>   -5.3241    1.0000 </r>
       <r>   -5.1155    1.0000 </r>
       <r>   -4.9693    1.0000 </r>
       <r>   -4.9230    1.0000 </r>
       <r>   -4.2690    1.0000 </r>
       <r>   -4.1692    1.0000 </r>
       <r>   -3.3372    1.0000 </r>
       <r>   -3.1372    0.9996 </r>
       <r>   -2.8044    0.0000 </r>
       <r>   -1.5917    0.0000 </r>
       <r>   -1.4245    0.0000 </r>
       <r>   -0.8379    0.0000 </r>
       <r>   -0.8196    0.0000 </r>
       <r>   -0.7065    0.0000 </r>
       <r>   -0.6682    0.0000 </r>
       <r>   -0.1286    0.0000 </r>
       <r>   -0.0063    0.0000 </r>
       <r>    0.2922    0.0000 </r>
       <r>    0.7049    0.0000 </r>
       <r>    0.7265    0.0000 </r>
       <r>    1.1014    0.0000 </r>
       <r>    1.1751    0.0000 </r>
       <r>    1.3650    0.0000 </r>
       <r>    1.4638    0.0000 </r>
       <r>    1.5569    0.0000 </r>
       <r>    1.5770    0.0000 </r>
       <r>    1.7151    0.0000 </r>
       <r>    1.8239    0.0000 </r>
       <r>    2.1698    0.0000 </r>
       <r>    2.3346    0.0000 </r>
       <r>    2.3958    0.0000 </r>
       <r>    2.6126    0.0000 </r>
       <r>    2.7568    0.0000 </r>
       <r>    2.8369    0.0000 </r>
       <r>    3.2031    0.0000 </r>
       <r>    3.5966    0.0000 </r>
       <r>    4.1595    0.0000 </r>
      </set>
      <set comment="kpoint 5">
       <r>  -31.7408    1.0000 </r>
       <r>  -22.0807    1.0000 </r>
       <r>  -22.0078    1.0000 </r>
       <r>  -21.8020    1.0000 </r>
       <r>  -21.1724    1.0000 </r>
       <r>  -21.1507    1.0000 </r>
       <r>  -20.8677    1.0000 </r>
       <r>  -20.4135    1.0000 </r>
       <r>  -20.3391    1.0000 </r>
       <r>  -20.1727    1.0000 </r>
       <r>  -20.1504    1.0000 </r>
       <r>  -20.1431    1.0000 </r>
       <r>  -19.5672    1.0000 </r>
       <r>  -18.8266    1.0000 </r>
       <r>  -18.6749    1.0000 </r>
       <r>  -18.3730    1.0000 </r>
       <r>  -18.3493    1.0000 </r>
       <r>  -18.3362    1.0000 </r>
       <r>  -17.9304    1.0000 </r>
       <r>  -17.8018    1.0000 </r>
       <r>  -17.6018    1.0000 </r>
       <r>  -17.2618    1.0000 </r>
       <r>  -17.1535    1.0000 </r>
       <r>  -17.1208    1.0000 </r>
       <r>  -16.5434    1.0000 </r>
       <r>  -16.4379    1.0000 </r>
       <r>  -16.2846    1.0000 </r>
       <r>  -15.8088    1.0000 </r>
       <r>  -15.6292    1.0000 </r>
       <r>  -15.1757    1.0000 </r>
       <r>  -14.9698    1.0000 </r>
       <r>  -14.6528    1.0000 </r>
       <r>  -13.9605    1.0000 </r>
       <r>  -13.9399    1.0000 </r>
       <r>  -13.9246    1.0000 </r>
       <r>  -13.8739    1.0000 </r>
       <r>  -13.8642    1.0000 </r>
       <r>  -13.7923    1.0000 </r>
       <r>  -13.6750    1.0000 </r>
       <r>  -13.4951    1.0000 </r>
       <r>  -13.0380    1.0000 </r>
       <r>  -12.4750    1.0000 </r>
       <r>  -12.2542    1.0000 </r>
       <r>  -12.0717    1.0000 </r>
       <r>  -11.8238    1.0000 </r>
       <r>  -11.7735    1.0000 </r>
       <r>  -11.5637    1.0000 </r>
       <r>  -11.5460    1.0000 </r>
       <r>  -11.5228    1.0000 </r>
       <r>  -10.9295    1.0000 </r>
       <r>  -10.8180    1.0000 </r>
       <r>  -10.5306    1.0000 </r>
       <r>  -10.2095    1.0000 </r>
       <r>  -10.2010    1.0000 </r>
       <r>  -10.1944    1.0000 </r>
       <r>  -10.0946    1.0000 </r>
       <r>  -10.0526    1.0000 </r>
       <r>  -10.0221    1.0000 </r>
       <r>   -9.9037    1.0000 </r>
       <r>   -9.7523    1.0000 </r>
       <r>   -9.7484    1.0000 </r>
       <r>   -9.5653    1.0000 </r>
       <r>   -9.4416    1.0000 </r>
       <r>   -9.4077    1.0000 </r>
       <r>   -9.1978    1.0000 </r>
       <r>   -9.0465    1.0000 </r>
       <r>   -9.0334    1.0000 </r>
       <r>   -8.9027    1.0000 </r>
       <r>   -8.8851    1.0000 </r>
       <r>   -8.6868    1.0000 </r>
       <r>   -8.6375    1.0000 </r>
       <r>   -8.6356    1.0000 </r>
       <r>   -8.6239    1.0000 </r>
       <r>   -8.5846    1.0000 </r>
       <r>   -8.3730    1.0000 </r>
       <r>   -8.2523    1.0000 </r>
       <r>   -8.1650    1.0000 </r>
       <r>   -8.0376    1.0000 </r>
       <r>   -7.9841    1.0000 </r>
       <r>   -7.8802    1.0000 </r>
       <r>   -7.8581    1.0000 </r>
       <r>   -7.8548    1.0000 </r>
       <r>   -7.2235    1.0000 </r>
       <r>   -7.1852    1.0000 </r>
       <r>   -7.1283    1.0000 </r>
       <r>   -6.8849    1.0000 </r>
       <r>   -6.7218    1.0000 </r>
       <r>   -6.6139    1.0000 </r>
       <r>   -6.4604    1.0000 </r>
       <r>   -6.2679    1.0000 </r>
       <r>   -6.1026    1.0000 </r>
       <r>   -5.9169    1.0000 </r>
       <r>   -5.9116    1.0000 </r>
       <r>   -5.8975    1.0000 </r>
       <r>   -5.4524    1.0000 </r>
       <r>   -5.4256    1.0000 </r>
       <r>   -5.1222    1.0000 </r>
       <r>   -5.0144    1.0000 </r>
       <r>   -4.9805    1.0000 </r>
       <r>   -4.9579    1.0000 </r>
       <r>   -3.7329    1.0000 </r>
       <r>   -3.4586    1.0000 </r>
       <r>   -3.2802    1.0000 </r>
       <r>   -2.3874    0.0000 </r>
       <r>   -2.2244    0.0000 </r>
       <r>   -0.9291    0.0000 </r>
       <r>   -0.8826    0.0000 </r>
       <r>   -0.8674    0.0000 </r>
       <r>   -0.5386    0.0000 </r>
       <r>   -0.2642    0.0000 </r>
       <r>   -0.2113    0.0000 </r>
       <r>    0.2517    0.0000 </r>
       <r>    0.2559    0.0000 </r>
       <r>    0.2624    0.0000 </r>
       <r>    0.5986    0.0000 </r>
       <r>    0.7927    0.0000 </r>
       <r>    0.9479    0.0000 </r>
       <r>    0.9742    0.0000 </r>
       <r>    1.0620    0.0000 </r>
       <r>    1.7330    0.0000 </r>
       <r>    1.7447    0.0000 </r>
       <r>    1.7671    0.0000 </r>
       <r>    1.8260    0.0000 </r>
       <r>    2.1082    0.0000 </r>
       <r>    2.1158    0.0000 </r>
       <r>    2.1204    0.0000 </r>
       <r>    2.2466    0.0000 </r>
       <r>    2.2481    0.0000 </r>
       <r>    2.3618    0.0000 </r>
       <r>    2.9972    0.0000 </r>
       <r>    3.0119    0.0000 </r>
       <r>    3.0361    0.0000 </r>
      </set>
     </set>
    </set>
   </array>
  </eigenvalues>
  <separator name="orbital magnetization" >
   <v name="MAGDIPOLOUT">      0.00000000      0.00000000      0.00000000</v>
  </separator>
  <dos>
   <i name="efermi">     -3.01742905 </i>
   <total>
    <array>
     <dimension dim="1">gridpoints</dimension>
     <dimension dim="2">spin</dimension>
     <field>energy</field>
     <field>total</field>
     <field>integrated</field>
     <set>
      <set comment="spin 1">
       <r>   -33.5359     0.0000     0.0000 </r>
       <r>   -33.4042     0.0000     0.0000 </r>
       <r>   -33.2726     0.0000     0.0000 </r>
       <r>   -33.1410     0.0000     0.0000 </r>
       <r>   -33.0093     0.0000     0.0000 </r>
       <r>   -32.8777     0.0000     0.0000 </r>
       <r>   -32.7460     0.0000     0.0000 </r>
       <r>   -32.6144     0.0000     0.0000 </r>
       <r>   -32.4828     0.0000     0.0000 </r>
       <r>   -32.3511     0.0000     0.0000 </r>
       <r>   -32.2195     0.0000     0.0000 </r>
       <r>   -32.0879     0.0000     0.0000 </r>
       <r>   -31.9562     0.0000     0.0000 </r>
       <r>   -31.8246     0.1349     0.0178 </r>
       <r>   -31.6930    13.7202     1.8238 </r>
       <r>   -31.5613     1.3385     2.0000 </r>
       <r>   -31.4297     0.0000     2.0000 </r>
       <r>   -31.2981     0.0000     2.0000 </r>
       <r>   -31.1664     0.0000     2.0000 </r>
       <r>   -31.0348     0.0000     2.0000 </r>
       <r>   -30.9032     0.0000     2.0000 </r>
       <r>   -30.7715     0.0000     2.0000 </r>
       <r>   -30.6399     0.0000     2.0000 </r>
       <r>   -30.5083     0.0000     2.0000 </r>
       <r>   -30.3766     0.0000     2.0000 </r>
       <r>   -30.2450     0.0000     2.0000 </r>
       <r>   -30.1134     0.0000     2.0000 </r>
       <r>   -29.9817     0.0000     2.0000 </r>
       <r>   -29.8501     0.0000     2.0000 </r>
       <r>   -29.7185     0.0000     2.0000 </r>
       <r>   -29.5868     0.0000     2.0000 </r>
       <r>   -29.4552     0.0000     2.0000 </r>
       <r>   -29.3236     0.0000     2.0000 </r>
       <r>   -29.1919     0.0000     2.0000 </r>
       <r>   -29.0603     0.0000     2.0000 </r>
       <r>   -28.9286     0.0000     2.0000 </r>
       <r>   -28.7970     0.0000     2.0000 </r>
       <r>   -28.6654     0.0000     2.0000 </r>
       <r>   -28.5337     0.0000     2.0000 </r>
       <r>   -28.4021     0.0000     2.0000 </r>
       <r>   -28.2705     0.0000     2.0000 </r>
       <r>   -28.1388     0.0000     2.0000 </r>
       <r>   -28.0072     0.0000     2.0000 </r>
       <r>   -27.8756     0.0000     2.0000 </r>
       <r>   -27.7439     0.0000     2.0000 </r>
       <r>   -27.6123     0.0000     2.0000 </r>
       <r>   -27.4807     0.0000     2.0000 </r>
       <r>   -27.3490     0.0000     2.0000 </r>
       <r>   -27.2174     0.0000     2.0000 </r>
       <r>   -27.0858     0.0000     2.0000 </r>
       <r>   -26.9541     0.0000     2.0000 </r>
       <r>   -26.8225     0.0000     2.0000 </r>
       <r>   -26.6909     0.0000     2.0000 </r>
       <r>   -26.5592     0.0000     2.0000 </r>
       <r>   -26.4276     0.0000     2.0000 </r>
       <r>   -26.2960     0.0000     2.0000 </r>
       <r>   -26.1643     0.0000     2.0000 </r>
       <r>   -26.0327     0.0000     2.0000 </r>
       <r>   -25.9011     0.0000     2.0000 </r>
       <r>   -25.7694     0.0000     2.0000 </r>
       <r>   -25.6378     0.0000     2.0000 </r>
       <r>   -25.5061     0.0000     2.0000 </r>
       <r>   -25.3745     0.0000     2.0000 </r>
       <r>   -25.2429     0.0000     2.0000 </r>
       <r>   -25.1112     0.0000     2.0000 </r>
       <r>   -24.9796     0.0000     2.0000 </r>
       <r>   -24.8480     0.0000     2.0000 </r>
       <r>   -24.7163     0.0000     2.0000 </r>
       <r>   -24.5847     0.0000     2.0000 </r>
       <r>   -24.4531     0.0000     2.0000 </r>
       <r>   -24.3214     0.0000     2.0000 </r>
       <r>   -24.1898     0.0000     2.0000 </r>
       <r>   -24.0582     0.0000     2.0000 </r>
       <r>   -23.9265     0.0000     2.0000 </r>
       <r>   -23.7949     0.0000     2.0000 </r>
       <r>   -23.6633     0.0000     2.0000 </r>
       <r>   -23.5316     0.0000     2.0000 </r>
       <r>   -23.4000     0.0000     2.0000 </r>
       <r>   -23.2684     0.0000     2.0000 </r>
       <r>   -23.1367     0.0000     2.0000 </r>
       <r>   -23.0051     0.0000     2.0000 </r>
       <r>   -22.8735     0.0000     2.0000 </r>
       <r>   -22.7418     0.0000     2.0000 </r>
       <r>   -22.6102     0.0000     2.0000 </r>
       <r>   -22.4786     0.0000     2.0000 </r>
       <r>   -22.3469     0.0274     2.0036 </r>
       <r>   -22.2153     3.9016     2.5172 </r>
       <r>   -22.0837     9.5053     3.7684 </r>
       <r>   -21.9520     5.0416     4.4321 </r>
       <r>   -21.8204    10.4064     5.8019 </r>
       <r>   -21.6887     5.4289     6.5165 </r>
       <r>   -21.5571     8.1131     7.5845 </r>
       <r>   -21.4255    12.1440     9.1831 </r>
       <r>   -21.2938     6.1957     9.9986 </r>
       <r>   -21.1622     3.3408    10.4384 </r>
       <r>   -21.0306     8.9889    11.6217 </r>
       <r>   -20.8989    10.5051    13.0045 </r>
       <r>   -20.7673    10.5713    14.3960 </r>
       <r>   -20.6357     8.7618    15.5494 </r>
       <r>   -20.5040     0.1556    15.5699 </r>
       <r>   -20.3724    12.6832    17.2394 </r>
       <r>   -20.2408     4.3356    17.8101 </r>
       <r>   -20.1091    18.2460    20.2119 </r>
       <r>   -19.9775     1.7739    20.4454 </r>
       <r>   -19.8459     3.2203    20.8693 </r>
       <r>   -19.7142    13.5011    22.6465 </r>
       <r>   -19.5826     8.7949    23.8042 </r>
       <r>   -19.4510     6.5325    24.6642 </r>
       <r>   -19.3193     6.0714    25.4634 </r>
       <r>   -19.1877    14.5335    27.3765 </r>
       <r>   -19.0561     7.0983    28.3108 </r>
       <r>   -18.9244     5.2655    29.0040 </r>
       <r>   -18.7928     5.3048    29.7023 </r>
       <r>   -18.6612     4.6104    30.3092 </r>
       <r>   -18.5295    14.3857    32.2028 </r>
       <r>   -18.3979    11.0662    33.6595 </r>
       <r>   -18.2662     9.2231    34.8736 </r>
       <r>   -18.1346     3.9501    35.3935 </r>
       <r>   -18.0030    16.0400    37.5050 </r>
       <r>   -17.8713     4.7722    38.1331 </r>
       <r>   -17.7397     3.9198    38.6491 </r>
       <r>   -17.6081     4.7980    39.2807 </r>
       <r>   -17.4764    16.2316    41.4173 </r>
       <r>   -17.3448     4.1433    41.9627 </r>
       <r>   -17.2132    21.6831    44.8170 </r>
       <r>   -17.0815     6.9306    45.7293 </r>
       <r>   -16.9499     3.7014    46.2165 </r>
       <r>   -16.8183     8.4319    47.3264 </r>
       <r>   -16.6866     3.9210    47.8426 </r>
       <r>   -16.5550     9.2243    49.0568 </r>
       <r>   -16.4234     8.7465    50.2081 </r>
       <r>   -16.2917     3.2195    50.6319 </r>
       <r>   -16.1601     8.8232    51.7934 </r>
       <r>   -16.0285     5.9011    52.5702 </r>
       <r>   -15.8968    13.3007    54.3210 </r>
       <r>   -15.7652    12.2902    55.9388 </r>
       <r>   -15.6336     1.9888    56.2006 </r>
       <r>   -15.5019     4.0614    56.7352 </r>
       <r>   -15.3703     3.0707    57.1394 </r>
       <r>   -15.2387     9.8687    58.4385 </r>
       <r>   -15.1070    21.5332    61.2730 </r>
       <r>   -14.9754     5.3649    61.9792 </r>
       <r>   -14.8438    11.1595    63.4482 </r>
       <r>   -14.7121    10.8930    64.8821 </r>
       <r>   -14.5805     6.4784    65.7349 </r>
       <r>   -14.4488    14.3200    67.6199 </r>
       <r>   -14.3172     6.2637    68.4444 </r>
       <r>   -14.1856     0.7278    68.5402 </r>
       <r>   -14.0539     4.3428    69.1119 </r>
       <r>   -13.9223     8.9594    70.2912 </r>
       <r>   -13.7907    15.8345    72.3756 </r>
       <r>   -13.6590    19.6467    74.9618 </r>
       <r>   -13.5274     1.7436    75.1913 </r>
       <r>   -13.3958     2.7589    75.5545 </r>
       <r>   -13.2641     0.2885    75.5924 </r>
       <r>   -13.1325    10.6490    76.9942 </r>
       <r>   -13.0009    13.8242    78.8139 </r>
       <r>   -12.8692    20.5777    81.5227 </r>
       <r>   -12.7376     1.9380    81.7778 </r>
       <r>   -12.6060     3.4312    82.2295 </r>
       <r>   -12.4743    18.4597    84.6594 </r>
       <r>   -12.3427    10.9915    86.1062 </r>
       <r>   -12.2111     3.8817    86.6172 </r>
       <r>   -12.0794     2.4625    86.9414 </r>
       <r>   -11.9478    12.9153    88.6415 </r>
       <r>   -11.8162     2.9185    89.0256 </r>
       <r>   -11.6845    14.8662    90.9825 </r>
       <r>   -11.5529    18.6546    93.4381 </r>
       <r>   -11.4213    13.7782    95.2518 </r>
       <r>   -11.2896     8.1459    96.3241 </r>
       <r>   -11.1580     5.8580    97.0952 </r>
       <r>   -11.0264     8.5456    98.2201 </r>
       <r>   -10.8947    11.1989    99.6943 </r>
       <r>   -10.7631    18.4802   102.1269 </r>
       <r>   -10.6314     1.7009   102.3508 </r>
       <r>   -10.4998    20.2004   105.0099 </r>
       <r>   -10.3682     4.5039   105.6027 </r>
       <r>   -10.2365    22.1175   108.5142 </r>
       <r>   -10.1049    26.7559   112.0362 </r>
       <r>    -9.9733    19.5844   114.6141 </r>
       <r>    -9.8416    12.9541   116.3194 </r>
       <r>    -9.7100    18.3662   118.7370 </r>
       <r>    -9.5784    25.8521   122.1400 </r>
       <r>    -9.4467    22.8927   125.1535 </r>
       <r>    -9.3151    25.8866   128.5610 </r>
       <r>    -9.1835    24.0650   131.7288 </r>
       <r>    -9.0518    28.1291   135.4316 </r>
       <r>    -8.9202    20.2748   138.1005 </r>
       <r>    -8.7886    19.5090   140.6685 </r>
       <r>    -8.6569    20.7275   143.3970 </r>
       <r>    -8.5253    19.1263   145.9146 </r>
       <r>    -8.3937    15.9928   148.0199 </r>
       <r>    -8.2620    15.7303   150.0905 </r>
       <r>    -8.1304    14.4458   151.9921 </r>
       <r>    -7.9988    29.6829   155.8994 </r>
       <r>    -7.8671    16.2309   158.0359 </r>
       <r>    -7.7355    18.0062   160.4062 </r>
       <r>    -7.6039     7.1561   161.3481 </r>
       <r>    -7.4722     3.2728   161.7790 </r>
       <r>    -7.3406    14.1361   163.6398 </r>
       <r>    -7.2089    33.0409   167.9891 </r>
       <r>    -7.0773    18.3393   170.4032 </r>
       <r>    -6.9457     3.0736   170.8078 </r>
       <r>    -6.8140    20.3791   173.4903 </r>
       <r>    -6.6824    11.5912   175.0161 </r>
       <r>    -6.5508    16.6316   177.2054 </r>
       <r>    -6.4191     7.5264   178.1962 </r>
       <r>    -6.2875    11.7806   179.7469 </r>
       <r>    -6.1559    15.3261   181.7644 </r>
       <r>    -6.0242    14.4885   183.6716 </r>
       <r>    -5.8926    18.3880   186.0921 </r>
       <r>    -5.7610     8.7478   187.2436 </r>
       <r>    -5.6293    13.7548   189.0542 </r>
       <r>    -5.4977     4.2169   189.6092 </r>
       <r>    -5.3661     7.2766   190.5671 </r>
       <r>    -5.2344     9.3724   191.8008 </r>
       <r>    -5.1028    10.3907   193.1686 </r>
       <r>    -4.9712    16.6919   195.3658 </r>
       <r>    -4.8395    18.2824   197.7724 </r>
       <r>    -4.7079     3.2293   198.1975 </r>
       <r>    -4.5763     0.1877   198.2222 </r>
       <r>    -4.4446     0.0000   198.2222 </r>
       <r>    -4.3130     1.6575   198.4404 </r>
       <r>    -4.1814    17.1268   200.6949 </r>
       <r>    -4.0497     6.5346   201.5551 </r>
       <r>    -3.9181     0.0037   201.5556 </r>
       <r>    -3.7865     0.2192   201.5844 </r>
       <r>    -3.6548     3.1112   201.9940 </r>
       <r>    -3.5232     0.1602   202.0150 </r>
       <r>    -3.3915     3.7826   202.5130 </r>
       <r>    -3.2599    12.2242   204.1221 </r>
       <r>    -3.1283    10.1666   205.4604 </r>
       <r>    -2.9966     4.1188   206.0026 </r>
       <r>    -2.8650     1.9783   206.2630 </r>
       <r>    -2.7334     9.5905   207.5254 </r>
       <r>    -2.6017     0.2291   207.5556 </r>
       <r>    -2.4701     0.0327   207.5599 </r>
       <r>    -2.3385     3.0655   207.9634 </r>
       <r>    -2.2068     2.6079   208.3067 </r>
       <r>    -2.0752     1.0466   208.4444 </r>
       <r>    -1.9436     0.0000   208.4444 </r>
       <r>    -1.8119     0.0000   208.4444 </r>
       <r>    -1.6803     0.0607   208.4524 </r>
       <r>    -1.5487     8.9537   209.6311 </r>
       <r>    -1.4170    11.4139   211.1335 </r>
       <r>    -1.2854     4.8938   211.7777 </r>
       <r>    -1.1538     0.0005   211.7778 </r>
       <r>    -1.0221     0.6653   211.8654 </r>
       <r>    -0.8905     8.8895   213.0355 </r>
       <r>    -0.7589    24.3943   216.2466 </r>
       <r>    -0.6272    18.7238   218.7113 </r>
       <r>    -0.4956     5.8843   219.4859 </r>
       <r>    -0.3640     0.5370   219.5566 </r>
       <r>    -0.2323     3.6992   220.0436 </r>
       <r>    -0.1007    11.0578   221.4991 </r>
       <r>     0.0310    10.7648   222.9162 </r>
       <r>     0.1626     1.5239   223.1168 </r>
       <r>     0.2942    13.8258   224.9367 </r>
       <r>     0.4259     9.2611   226.1558 </r>
       <r>     0.5575     3.3408   226.5956 </r>
       <r>     0.6891     8.6828   227.7385 </r>
       <r>     0.8208    18.9842   230.2375 </r>
       <r>     0.9524     6.0285   231.0310 </r>
       <r>     1.0840     9.7395   232.3131 </r>
       <r>     1.2157    16.6807   234.5089 </r>
       <r>     1.3473     6.9367   235.4220 </r>
       <r>     1.4789    14.9847   237.3945 </r>
       <r>     1.6106    22.9401   240.4142 </r>
       <r>     1.7422    16.0751   242.5302 </r>
       <r>     1.8738    27.5095   246.1514 </r>
       <r>     2.0055     8.7786   247.3070 </r>
       <r>     2.1371    15.6392   249.3656 </r>
       <r>     2.2687    25.0801   252.6671 </r>
       <r>     2.4004    28.8884   256.4698 </r>
       <r>     2.5320     9.9571   257.7805 </r>
       <r>     2.6636     6.1767   258.5935 </r>
       <r>     2.7953     8.8245   259.7552 </r>
       <r>     2.9269     5.3272   260.4564 </r>
       <r>     3.0585     8.6947   261.6009 </r>
       <r>     3.1902     2.6627   261.9514 </r>
       <r>     3.3218     5.3341   262.6536 </r>
       <r>     3.4534     0.0995   262.6667 </r>
       <r>     3.5851     1.7646   262.8990 </r>
       <r>     3.7167     4.9748   263.5538 </r>
       <r>     3.8484     0.0132   263.5556 </r>
       <r>     3.9800     0.0000   263.5556 </r>
       <r>     4.1116     0.2967   263.5946 </r>
       <r>     4.2433     3.0495   263.9960 </r>
       <r>     4.3749     0.0301   264.0000 </r>
       <r>     4.5065     0.0000   264.0000 </r>
       <r>     4.6382     0.0000   264.0000 </r>
       <r>     4.7698     0.0000   264.0000 </r>
       <r>     4.9014     0.0000   264.0000 </r>
       <r>     5.0331     0.0000   264.0000 </r>
       <r>     5.1647     0.0000   264.0000 </r>
       <r>     5.2963     0.0000   264.0000 </r>
       <r>     5.4280     0.0000   264.0000 </r>
       <r>     5.5596     0.0000   264.0000 </r>
       <r>     5.6912     0.0000   264.0000 </r>
       <r>     5.8229     0.0000   264.0000 </r>
       <r>     5.9545     0.0000   264.0000 </r>
      </set>
     </set>
    </array>
   </total>
  </dos>
 </calculation>
 <structure name="finalpos" >
  <crystal>
   <varray name="basis" >
    <v>      12.30000019       0.00000000       0.00000000 </v>
    <v>       6.15000080      10.65211222       0.00000000 </v>
    <v>       0.00000000       0.00000000      20.00000000 </v>
   </varray>
   <i name="volume">   2620.41964732 </i>
   <varray name="rec_basis" >
    <v>       0.08130081      -0.04693905       0.00000000 </v>
    <v>       0.00000000       0.09387809       0.00000000 </v>
    <v>       0.00000000       0.00000000       0.05000000 </v>
   </varray>
  </crystal>
  <varray name="positions" >
   <v>       0.00000000       0.00000000       0.41799748 </v>
   <v>       0.20000000       0.00000000       0.41799748 </v>
   <v>       0.40000000       0.00000000       0.41799748 </v>
   <v>       0.60000000       0.00000000       0.41799748 </v>
   <v>       0.80000000       0.00000000       0.41799748 </v>
   <v>       0.00000000       0.20000000       0.41799748 </v>
   <v>       0.20000000       0.20000000       0.41799748 </v>
   <v>       0.40000000       0.20000000       0.41799748 </v>
   <v>       0.60000000       0.20000000       0.41799748 </v>
   <v>       0.80000000       0.20000000       0.41799748 </v>
   <v>       0.00000000       0.40000000       0.41799748 </v>
   <v>       0.20000000       0.40000000       0.41799748 </v>
   <v>       0.40000000       0.40000000       0.41799748 </v>
   <v>       0.60000000       0.40000000       0.41799748 </v>
   <v>       0.80000000       0.40000000       0.41799748 </v>
   <v>       0.00000000       0.60000000       0.41799748 </v>
   <v>       0.20000000       0.60000000       0.41799748 </v>
   <v>       0.40000000       0.60000000       0.41799748 </v>
   <v>       0.60000000       0.60000000       0.41799748 </v>
   <v>       0.80000000       0.60000000       0.41799748 </v>
   <v>       0.00000000       0.80000000       0.41799748 </v>
   <v>       0.20000000       0.80000000       0.41799748 </v>
   <v>       0.40000000       0.80000000       0.41799748 </v>
   <v>       0.60000000       0.80000000       0.41799748 </v>
   <v>       0.80000000       0.80000000       0.41799748 </v>
   <v>       0.06709257       0.06666660       0.41843199 </v>
   <v>       0.26666667       0.06666660       0.41800609 </v>
   <v>       0.46666667       0.06666660       0.41800609 </v>
   <v>       0.66666667       0.06666660       0.41800609 </v>
   <v>       0.86666667       0.06666660       0.41800609 </v>
   <v>       0.06666667       0.26666660       0.41800609 </v>
   <v>       0.26666667       0.26666660       0.41800609 </v>
   <v>       0.46666667       0.26666660       0.41800609 </v>
   <v>       0.66666667       0.26666660       0.41800609 </v>
   <v>       0.86666667       0.26666660       0.41800609 </v>
   <v>       0.06666667       0.46666660       0.41800609 </v>
   <v>       0.26666667       0.46666660       0.41800609 </v>
   <v>       0.46666667       0.46666660       0.41800609 </v>
   <v>       0.66666667       0.46666660       0.41800609 </v>
   <v>       0.86666667       0.46666660       0.41800609 </v>
   <v>       0.06666667       0.66666660       0.41800609 </v>
   <v>       0.26666667       0.66666660       0.41800609 </v>
   <v>       0.46666667       0.66666660       0.41800609 </v>
   <v>       0.66666667       0.66666660       0.41800609 </v>
   <v>       0.86666667       0.66666660       0.41800609 </v>
   <v>       0.06666667       0.86666660       0.41800609 </v>
   <v>       0.26666667       0.86666660       0.41800609 </v>
   <v>       0.46666667       0.86666660       0.41800609 </v>
   <v>       0.66666667       0.86666660       0.41800609 </v>
   <v>       0.86666667       0.86666660       0.41800609 </v>
   <v>       0.40000000       0.40000000       0.46800609 </v>
  </varray>
  <varray name="velocities" >
   <v>       0.00000000       0.00000000       0.00000000 </v>
   <v>       0.00000000       0.00000000       0.00000000 </v>
   <v>       0.00000000       0.00000000       0.00000000 </v>
   <v>       0.00000000       0.00000000       0.00000000 </v>
   <v>       0.00000000       0.00000000       0.00000000 </v>
   <v>       0.00000000       0.00000000       0.00000000 </v>
   <v>       0.00000000       0.00000000       0.00000000 </v>
   <v>       0.00000000       0.00000000       0.00000000 </v>
   <v>       0.00000000       0.00000000       0.00000000 </v>
   <v>       0.00000000       0.00000000       0.00000000 </v>
   <v>       0.00000000       0.00000000       0.00000000 </v>
   <v>       0.00000000       0.00000000       0.00000000 </v>
   <v>       0.00000000       0.00000000       0.00000000 </v>
   <v>       0.00000000       0.00000000       0.00000000 </v>
   <v>       0.00000000       0.00000000       0.00000000 </v>
   <v>       0.00000000       0.00000000       0.00000000 </v>
   <v>       0.00000000       0.00000000       0.00000000 </v>
   <v>       0.00000000       0.00000000       0.00000000 </v>
   <v>       0.00000000       0.00000000       0.00000000 </v>
   <v>       0.00000000       0.00000000       0.00000000 </v>
   <v>       0.00000000       0.00000000       0.00000000 </v>
   <v>       0.00000000       0.00000000       0.00000000 </v>
   <v>       0.00000000       0.00000000       0.00000000 </v>
   <v>       0.00000000       0.00000000       0.00000000 </v>
   <v>       0.00000000       0.00000000       0.00000000 </v>
   <v>       0.00000000       0.00000000       0.00000000 </v>
   <v>       0.00000000       0.00000000       0.00000000 </v>
   <v>       0.00000000       0.00000000       0.00000000 </v>
   <v>       0.00000000       0.00000000       0.00000000 </v>
   <v>       0.00000000       0.00000000       0.00000000 </v>
   <v>       0.00000000       0.00000000       0.00000000 </v>
   <v>       0.00000000       0.00000000       0.00000000 </v>
   <v>       0.00000000       0.00000000       0.00000000 </v>
   <v>       0.00000000       0.00000000       0.00000000 </v>
   <v>       0.00000000       0.00000000       0.00000000 </v>
   <v>       0.00000000       0.00000000       0.00000000 </v>
   <v>       0.00000000       0.00000000       0.00000000 </v>
   <v>       0.00000000       0.00000000       0.00000000 </v>
   <v>       0.00000000       0.00000000       0.00000000 </v>
   <v>       0.00000000       0.00000000       0.00000000 </v>
   <v>       0.00000000       0.00000000       0.00000000 </v>
   <v>       0.00000000       0.00000000       0.00000000 </v>
   <v>       0.00000000       0.00000000       0.00000000 </v>
   <v>       0.00000000       0.00000000       0.00000000 </v>
   <v>       0.00000000       0.00000000       0.00000000 </v>
   <v>       0.00000000       0.00000000       0.00000000 </v>
   <v>       0.00000000       0.00000000       0.00000000 </v>
   <v>       0.00000000       0.00000000       0.00000000 </v>
   <v>       0.00000000       0.00000000       0.00000000 </v>
   <v>       0.00000000       0.00000000       0.00000000 </v>
   <v>       0.00000000       0.00000000       0.00000000 </v>
  </varray>
 </structure>
</modeling>
