  51  51   0   0
  0.5138078E+02  0.1230000E-08  0.1230000E-08  0.2000000E-08  0.5000000E-15
  1.000000000000000E-004
  CAR 
                                         
      5.96451827    -33.53517306  301     -3.01671985      1.00000000
    -33.535  0.0000E+00  0.0000E+00
    -33.404  0.0000E+00  0.0000E+00
    -33.272  0.0000E+00  0.0000E+00
    -33.140  0.0000E+00  0.0000E+00
    -33.009  0.0000E+00  0.0000E+00
    -32.877  0.0000E+00  0.0000E+00
    -32.745  0.0000E+00  0.0000E+00
    -32.614  0.0000E+00  0.0000E+00
    -32.482  0.0000E+00  0.0000E+00
    -32.350  0.0000E+00  0.0000E+00
    -32.219  0.0000E+00  0.0000E+00
    -32.087  0.0000E+00  0.0000E+00
    -31.955  0.8299E-08  0.1093E-08
    -31.824  0.1347E+00  0.1773E-01
    -31.692  0.1372E+02  0.1824E+01
    -31.560  0.1337E+01  0.2000E+01
    -31.429  0.2913E-05  0.2000E+01
    -31.297  0.0000E+00  0.2000E+01
    -31.165  0.0000E+00  0.2000E+01
    -31.034  0.0000E+00  0.2000E+01
    -30.902  0.0000E+00  0.2000E+01
    -30.770  0.0000E+00  0.2000E+01
    -30.639  0.0000E+00  0.2000E+01
    -30.507  0.0000E+00  0.2000E+01
    -30.375  0.0000E+00  0.2000E+01
    -30.244  0.0000E+00  0.2000E+01
    -30.112  0.0000E+00  0.2000E+01
    -29.980  0.0000E+00  0.2000E+01
    -29.849  0.0000E+00  0.2000E+01
    -29.717  0.0000E+00  0.2000E+01
    -29.585  0.0000E+00  0.2000E+01
    -29.454  0.0000E+00  0.2000E+01
    -29.322  0.0000E+00  0.2000E+01
    -29.190  0.0000E+00  0.2000E+01
    -29.059  0.0000E+00  0.2000E+01
    -28.927  0.0000E+00  0.2000E+01
    -28.795  0.0000E+00  0.2000E+01
    -28.664  0.0000E+00  0.2000E+01
    -28.532  0.0000E+00  0.2000E+01
    -28.400  0.0000E+00  0.2000E+01
    -28.269  0.0000E+00  0.2000E+01
    -28.137  0.0000E+00  0.2000E+01
    -28.005  0.0000E+00  0.2000E+01
    -27.874  0.0000E+00  0.2000E+01
    -27.742  0.0000E+00  0.2000E+01
    -27.610  0.0000E+00  0.2000E+01
    -27.479  0.0000E+00  0.2000E+01
    -27.347  0.0000E+00  0.2000E+01
    -27.215  0.0000E+00  0.2000E+01
    -27.084  0.0000E+00  0.2000E+01
    -26.952  0.0000E+00  0.2000E+01
    -26.820  0.0000E+00  0.2000E+01
    -26.689  0.0000E+00  0.2000E+01
    -26.557  0.0000E+00  0.2000E+01
    -26.425  0.0000E+00  0.2000E+01
    -26.294  0.0000E+00  0.2000E+01
    -26.162  0.0000E+00  0.2000E+01
    -26.030  0.0000E+00  0.2000E+01
    -25.899  0.0000E+00  0.2000E+01
    -25.767  0.0000E+00  0.2000E+01
    -25.635  0.0000E+00  0.2000E+01
    -25.504  0.0000E+00  0.2000E+01
    -25.372  0.0000E+00  0.2000E+01
    -25.240  0.0000E+00  0.2000E+01
    -25.109  0.0000E+00  0.2000E+01
    -24.977  0.0000E+00  0.2000E+01
    -24.845  0.0000E+00  0.2000E+01
    -24.714  0.0000E+00  0.2000E+01
    -24.582  0.0000E+00  0.2000E+01
    -24.450  0.0000E+00  0.2000E+01
    -24.319  0.0000E+00  0.2000E+01
    -24.187  0.0000E+00  0.2000E+01
    -24.055  0.0000E+00  0.2000E+01
    -23.924  0.0000E+00  0.2000E+01
    -23.792  0.0000E+00  0.2000E+01
    -23.660  0.0000E+00  0.2000E+01
    -23.529  0.0000E+00  0.2000E+01
    -23.397  0.0000E+00  0.2000E+01
    -23.265  0.0000E+00  0.2000E+01
    -23.134  0.0000E+00  0.2000E+01
    -23.002  0.0000E+00  0.2000E+01
    -22.870  0.0000E+00  0.2000E+01
    -22.739  0.0000E+00  0.2000E+01
    -22.607  0.0000E+00  0.2000E+01
    -22.475  0.6202E-08  0.2000E+01
    -22.344  0.3341E-01  0.2004E+01
    -22.212  0.4166E+01  0.2553E+01
    -22.080  0.9356E+01  0.3785E+01
    -21.949  0.4972E+01  0.4439E+01
    -21.817  0.1057E+02  0.5831E+01
    -21.685  0.5468E+01  0.6551E+01
    -21.554  0.7898E+01  0.7591E+01
    -21.422  0.1246E+02  0.9232E+01
    -21.290  0.5828E+01  0.9999E+01
    -21.159  0.3563E+01  0.1047E+02
    -21.027  0.9114E+01  0.1167E+02
    -20.895  0.1064E+02  0.1307E+02
    -20.764  0.1029E+02  0.1442E+02
    -20.632  0.8561E+01  0.1555E+02
    -20.500  0.1745E+00  0.1557E+02
    -20.369  0.1293E+02  0.1728E+02
    -20.237  0.4117E+01  0.1782E+02
    -20.105  0.1846E+02  0.2025E+02
    -19.974  0.1495E+01  0.2045E+02
    -19.842  0.3407E+01  0.2089E+02
    -19.710  0.1371E+02  0.2270E+02
    -19.579  0.8626E+01  0.2384E+02
    -19.447  0.6297E+01  0.2467E+02
    -19.315  0.6495E+01  0.2552E+02
    -19.184  0.1428E+02  0.2740E+02
    -19.052  0.7311E+01  0.2836E+02
    -18.920  0.4989E+01  0.2902E+02
    -18.789  0.5266E+01  0.2971E+02
    -18.657  0.4917E+01  0.3036E+02
    -18.525  0.1413E+02  0.3222E+02
    -18.394  0.1122E+02  0.3370E+02
    -18.262  0.8955E+01  0.3488E+02
    -18.130  0.4393E+01  0.3546E+02
    -17.999  0.1568E+02  0.3752E+02
    -17.867  0.4775E+01  0.3815E+02
    -17.735  0.3827E+01  0.3865E+02
    -17.604  0.5331E+01  0.3935E+02
    -17.472  0.1602E+02  0.4146E+02
    -17.340  0.4103E+01  0.4200E+02
    -17.209  0.2157E+02  0.4484E+02
    -17.077  0.6861E+01  0.4575E+02
    -16.945  0.3593E+01  0.4622E+02
    -16.814  0.8680E+01  0.4736E+02
    -16.682  0.3994E+01  0.4789E+02
    -16.550  0.9043E+01  0.4908E+02
    -16.419  0.8828E+01  0.5024E+02
    -16.287  0.3123E+01  0.5065E+02
    -16.155  0.9082E+01  0.5185E+02
    -16.024  0.5856E+01  0.5262E+02
    -15.892  0.1316E+02  0.5435E+02
    -15.760  0.1214E+02  0.5595E+02
    -15.629  0.2051E+01  0.5622E+02
    -15.497  0.4149E+01  0.5677E+02
    -15.365  0.2894E+01  0.5715E+02
    -15.234  0.1003E+02  0.5847E+02
    -15.102  0.2184E+02  0.6135E+02
    -14.970  0.5002E+01  0.6200E+02
    -14.839  0.1134E+02  0.6350E+02
    -14.707  0.1064E+02  0.6490E+02
    -14.575  0.6442E+01  0.6575E+02
    -14.444  0.1509E+02  0.6773E+02
    -14.312  0.5398E+01  0.6844E+02
    -14.180  0.8897E+00  0.6856E+02
    -14.049  0.4199E+01  0.6911E+02
    -13.917  0.9539E+01  0.7037E+02
    -13.785  0.1629E+02  0.7252E+02
    -13.654  0.1876E+02  0.7499E+02
    -13.522  0.1700E+01  0.7521E+02
    -13.390  0.2627E+01  0.7555E+02
    -13.259  0.3893E+00  0.7561E+02
    -13.127  0.1094E+02  0.7705E+02
    -12.995  0.1386E+02  0.7887E+02
    -12.864  0.2057E+02  0.8158E+02
    -12.732  0.1510E+01  0.8178E+02
    -12.600  0.4122E+01  0.8232E+02
    -12.469  0.1804E+02  0.8470E+02
    -12.337  0.1094E+02  0.8614E+02
    -12.205  0.3743E+01  0.8663E+02
    -12.074  0.2795E+01  0.8700E+02
    -11.942  0.1255E+02  0.8865E+02
    -11.810  0.3251E+01  0.8908E+02
    -11.679  0.1552E+02  0.9112E+02
    -11.547  0.1816E+02  0.9351E+02
    -11.415  0.1364E+02  0.9531E+02
    -11.284  0.8315E+01  0.9640E+02
    -11.152  0.5663E+01  0.9715E+02
    -11.020  0.8165E+01  0.9822E+02
    -10.889  0.1214E+02  0.9982E+02
    -10.757  0.1770E+02  0.1022E+03
    -10.625  0.1822E+01  0.1024E+03
    -10.494  0.2046E+02  0.1051E+03
    -10.362  0.4112E+01  0.1056E+03
    -10.230  0.2345E+02  0.1087E+03
    -10.099  0.2604E+02  0.1121E+03
     -9.967  0.1896E+02  0.1146E+03
     -9.835  0.1393E+02  0.1165E+03
     -9.704  0.1785E+02  0.1188E+03
     -9.572  0.2687E+02  0.1224E+03
     -9.440  0.2167E+02  0.1252E+03
     -9.309  0.2672E+02  0.1287E+03
     -9.177  0.2376E+02  0.1319E+03
     -9.045  0.2852E+02  0.1356E+03
     -8.914  0.2007E+02  0.1383E+03
     -8.782  0.1845E+02  0.1407E+03
     -8.650  0.2222E+02  0.1436E+03
     -8.519  0.1811E+02  0.1460E+03
     -8.387  0.1632E+02  0.1481E+03
     -8.255  0.1550E+02  0.1502E+03
     -8.124  0.1536E+02  0.1522E+03
     -7.992  0.2902E+02  0.1560E+03
     -7.860  0.1619E+02  0.1582E+03
     -7.729  0.1716E+02  0.1604E+03
     -7.597  0.7680E+01  0.1614E+03
     -7.465  0.2649E+01  0.1618E+03
     -7.334  0.1611E+02  0.1639E+03
     -7.202  0.3264E+02  0.1682E+03
     -7.070  0.1682E+02  0.1704E+03
     -6.939  0.3822E+01  0.1709E+03
     -6.807  0.1981E+02  0.1735E+03
     -6.675  0.1206E+02  0.1751E+03
     -6.544  0.1640E+02  0.1773E+03
     -6.412  0.7254E+01  0.1782E+03
     -6.280  0.1222E+02  0.1798E+03
     -6.149  0.1536E+02  0.1819E+03
     -6.017  0.1403E+02  0.1837E+03
     -5.885  0.1947E+02  0.1863E+03
     -5.754  0.8191E+01  0.1873E+03
     -5.622  0.1374E+02  0.1892E+03
     -5.490  0.3607E+01  0.1896E+03
     -5.359  0.7583E+01  0.1906E+03
     -5.227  0.9004E+01  0.1918E+03
     -5.095  0.1122E+02  0.1933E+03
     -4.964  0.1755E+02  0.1956E+03
     -4.832  0.1654E+02  0.1978E+03
     -4.700  0.3216E+01  0.1982E+03
     -4.569  0.1281E+00  0.1982E+03
     -4.437  0.1511E-04  0.1982E+03
     -4.305  0.2288E+01  0.1985E+03
     -4.174  0.1728E+02  0.2008E+03
     -4.042  0.5750E+01  0.2016E+03
     -3.910  0.1834E-02  0.2016E+03
     -3.779  0.2987E+00  0.2016E+03
     -3.647  0.3047E+01  0.2020E+03
     -3.515  0.2097E+00  0.2020E+03
     -3.384  0.4007E+01  0.2026E+03
     -3.252  0.1229E+02  0.2042E+03
     -3.120  0.1051E+02  0.2056E+03
     -2.989  0.3422E+01  0.2060E+03
     -2.857  0.2253E+01  0.2063E+03
     -2.725  0.9395E+01  0.2075E+03
     -2.594  0.1322E+00  0.2076E+03
     -2.462  0.5708E-01  0.2076E+03
     -2.330  0.3139E+01  0.2080E+03
     -2.199  0.2768E+01  0.2083E+03
     -2.067  0.7874E+00  0.2084E+03
     -1.935  0.1434E-04  0.2084E+03
     -1.804  0.9170E-08  0.2084E+03
     -1.672  0.1115E+00  0.2085E+03
     -1.540  0.9305E+01  0.2097E+03
     -1.409  0.1210E+02  0.2113E+03
     -1.277  0.3798E+01  0.2118E+03
     -1.145  0.1907E-03  0.2118E+03
     -1.014  0.9151E+00  0.2119E+03
     -0.882  0.9882E+01  0.2132E+03
     -0.750  0.2379E+02  0.2163E+03
     -0.619  0.1859E+02  0.2188E+03
     -0.487  0.5551E+01  0.2195E+03
     -0.355  0.3629E+00  0.2196E+03
     -0.224  0.4193E+01  0.2201E+03
     -0.092  0.1122E+02  0.2216E+03
      0.040  0.1059E+02  0.2230E+03
      0.171  0.1068E+01  0.2231E+03
      0.303  0.1521E+02  0.2251E+03
      0.435  0.8282E+01  0.2262E+03
      0.566  0.3258E+01  0.2266E+03
      0.698  0.9956E+01  0.2280E+03
      0.830  0.1794E+02  0.2303E+03
      0.961  0.6029E+01  0.2311E+03
      1.093  0.1051E+02  0.2325E+03
      1.225  0.1570E+02  0.2346E+03
      1.356  0.7635E+01  0.2356E+03
      1.488  0.1498E+02  0.2375E+03
      1.620  0.2300E+02  0.2406E+03
      1.751  0.1530E+02  0.2426E+03
      1.883  0.2799E+02  0.2463E+03
      2.015  0.8557E+01  0.2474E+03
      2.146  0.1570E+02  0.2495E+03
      2.278  0.2614E+02  0.2529E+03
      2.410  0.3331E+02  0.2573E+03
      2.541  0.1052E+02  0.2587E+03
      2.673  0.6136E+01  0.2595E+03
      2.805  0.7058E+01  0.2604E+03
      2.936  0.7183E+01  0.2614E+03
      3.068  0.9051E+01  0.2625E+03
      3.200  0.2437E+01  0.2629E+03
      3.331  0.1850E+01  0.2631E+03
      3.463  0.8513E-03  0.2631E+03
      3.595  0.1677E+01  0.2633E+03
      3.726  0.1698E+01  0.2636E+03
      3.858  0.3414E-03  0.2636E+03
      3.990  0.6428E-06  0.2636E+03
      4.121  0.2965E+00  0.2636E+03
      4.253  0.3049E+01  0.2640E+03
      4.385  0.3003E-01  0.2640E+03
      4.516  0.1859E-08  0.2640E+03
      4.648  0.0000E+00  0.2640E+03
      4.780  0.0000E+00  0.2640E+03
      4.911  0.0000E+00  0.2640E+03
      5.043  0.0000E+00  0.2640E+03
      5.175  0.0000E+00  0.2640E+03
      5.306  0.0000E+00  0.2640E+03
      5.438  0.0000E+00  0.2640E+03
      5.570  0.0000E+00  0.2640E+03
      5.701  0.0000E+00  0.2640E+03
      5.833  0.0000E+00  0.2640E+03
      5.965  0.0000E+00  0.2640E+03
