   14   14    1    1
  0.2620420E+02  0.6508548E-09  0.6508548E-09  0.1000000E-08  0.5000000E-15
  1.000000000000000E-004
  CAR 
 vasp                                    
     56    202     36
 
  0.5000000E+00  0.1000000E+01  0.0000000E+00  0.4950495E-02
    1      -19.965267   1.000000
    2      -19.965149   1.000000
    3      -18.314562   1.000000
    4      -18.314531   1.000000
    5      -15.504192   1.000000
    6      -15.236268   1.000000
    7      -15.236190   1.000000
    8      -14.641179   1.000000
    9      -13.536205   1.000000
   10      -13.536158   1.000000
   11      -10.640244   1.000000
   12      -10.640191   1.000000
   13      -10.512535   1.000000
   14      -10.512465   1.000000
   15       -8.124089   1.000000
   16       -8.124001   1.000000
   17       -7.873010   1.000000
   18       -7.520692   1.000000
   19       -7.520632   1.000000
   20       -7.103765   1.000000
   21       -7.103695   1.000000
   22       -6.203728   1.000000
   23       -6.203711   1.000000
   24       -6.051139   1.000000
   25       -6.051091   1.000000
   26       -3.806252   1.000000
   27       -3.047974   1.000000
   28       -3.047879   1.000000
   29        0.020233   0.000000
   30        0.020290   0.000000
   31        0.196204   0.000000
   32        2.980731   0.000000
   33        2.980783   0.000000
   34        3.727996   0.000000
   35        3.739161   0.000000
   36        4.654966   0.000000
 
  0.4950000E+00  0.9900000E+00  0.0000000E+00  0.4950495E-02
    1      -19.998014   1.000000
    2      -19.931254   1.000000
    3      -18.362835   1.000000
    4      -18.265176   1.000000
    5      -15.517474   1.000000
    6      -15.246278   1.000000
    7      -15.225935   1.000000
    8      -14.627028   1.000000
    9      -13.607661   1.000000
   10      -13.464577   1.000000
   11      -10.699303   1.000000
   12      -10.598568   1.000000
   13      -10.580541   1.000000
   14      -10.425531   1.000000
   15       -8.163190   1.000000
   16       -8.083579   1.000000
   17       -7.872420   1.000000
   18       -7.592516   1.000000
   19       -7.451890   1.000000
   20       -7.176176   1.000000
   21       -7.032814   1.000000
   22       -6.258710   1.000000
   23       -6.147560   1.000000
   24       -6.119759   1.000000
   25       -5.984866   1.000000
   26       -3.810275   1.000000
   27       -3.062165   1.000000
   28       -3.034872   1.000000
   29        0.017011   0.000000
   30        0.023910   0.000000
   31        0.201160   0.000000
   32        2.935631   0.000000
   33        3.027406   0.000000
   34        3.651349   0.000000
   35        3.813667   0.000000
   36        4.614946   0.000000
 
  0.4900000E+00  0.9800000E+00  0.0000000E+00  0.4950495E-02
    1      -20.029661   1.000000
    2      -19.896143   1.000000
    3      -18.410027   1.000000
    4      -18.214708   1.000000
    5      -15.554989   1.000000
    6      -15.255876   1.000000
    7      -15.215486   1.000000
    8      -14.586904   1.000000
    9      -13.678531   1.000000
   10      -13.393085   1.000000
   11      -10.757695   1.000000
   12      -10.683186   1.000000
   13      -10.520255   1.000000
   14      -10.337690   1.000000
   15       -8.200956   1.000000
   16       -8.041803   1.000000
   17       -7.870649   1.000000
   18       -7.666624   1.000000
   19       -7.385867   1.000000
   20       -7.249455   1.000000
   21       -6.962487   1.000000
   22       -6.312511   1.000000
   23       -6.190468   1.000000
   24       -6.090154   1.000000
   25       -5.920138   1.000000
   26       -3.822280   1.000000
   27       -3.077554   1.000000
   28       -3.022879   1.000000
   29        0.014315   0.000000
   30        0.027891   0.000000
   31        0.215964   0.000000
   32        2.892217   0.000000
   33        3.075890   0.000000
   34        3.610354   0.000000
   35        4.289408   0.000000
   36        4.594767   0.000000
 
  0.4850000E+00  0.9700000E+00  0.0000000E+00  0.4950495E-02
    1      -20.060153   1.000000
    2      -19.859880   1.000000
    3      -18.456122   1.000000
    4      -18.163160   1.000000
    5      -15.611364   1.000000
    6      -15.264976   1.000000
    7      -15.205035   1.000000
    8      -14.526182   1.000000
    9      -13.748487   1.000000
   10      -13.322221   1.000000
   11      -10.815449   1.000000
   12      -10.766205   1.000000
   13      -10.459377   1.000000
   14      -10.249248   1.000000
   15       -8.237350   1.000000
   16       -7.998642   1.000000
   17       -7.867698   1.000000
   18       -7.743295   1.000000
   19       -7.323635   1.000000
   20       -7.322905   1.000000
   21       -6.893555   1.000000
   22       -6.365115   1.000000
   23       -6.262639   1.000000
   24       -6.031656   1.000000
   25       -5.858417   1.000000
   26       -3.842087   1.000000
   27       -3.094124   1.000000
   28       -3.012146   1.000000
   29        0.012277   0.000000
   30        0.030823   0.000000
   31        0.240434   0.000000
   32        2.850271   0.000000
   33        3.125674   0.000000
   34        3.493794   0.000000
   35        3.974543   0.000000
   36        4.529329   0.000000
 
  0.4800000E+00  0.9600000E+00  0.0000000E+00  0.4950495E-02
    1      -20.089487   1.000000
    2      -19.822467   1.000000
    3      -18.501116   1.000000
    4      -18.110542   1.000000
    5      -15.680930   1.000000
    6      -15.273502   1.000000
    7      -15.194821   1.000000
    8      -14.450597   1.000000
    9      -13.817195   1.000000
   10      -13.252236   1.000000
   11      -10.872610   1.000000
   12      -10.846976   1.000000
   13      -10.397925   1.000000
   14      -10.160422   1.000000
   15       -8.272378   1.000000
   16       -7.954143   1.000000
   17       -7.863666   1.000000
   18       -7.822607   1.000000
   19       -7.398926   1.000000
   20       -7.263003   1.000000
   21       -6.825667   1.000000
   22       -6.416512   1.000000
   23       -6.336334   1.000000
   24       -5.972051   1.000000
   25       -5.799276   1.000000
   26       -3.869608   1.000000
   27       -3.111894   1.000000
   28       -3.002263   1.000000
   29        0.011008   0.000000
   30        0.035016   0.000000
   31        0.274528   0.000000
   32        2.810000   0.000000
   33        3.177124   0.000000
   34        3.406852   0.000000
   35        4.053587   0.000000
   36        4.488523   0.000000
 
  0.4750000E+00  0.9500000E+00  0.0000000E+00  0.4950495E-02
    1      -20.117665   1.000000
    2      -19.783909   1.000000
    3      -18.545007   1.000000
    4      -18.056861   1.000000
    5      -15.759373   1.000000
    6      -15.281375   1.000000
    7      -15.185067   1.000000
    8      -14.364345   1.000000
    9      -13.884250   1.000000
   10      -13.183865   1.000000
   11      -10.929082   1.000000
   12      -10.925135   1.000000
   13      -10.335924   1.000000
   14      -10.071371   1.000000
   15       -8.306316   1.000000
   16       -7.908309   1.000000
   17       -7.904313   1.000000
   18       -7.858363   1.000000
   19       -7.475582   1.000000
   20       -7.205863   1.000000
   21       -6.758847   1.000000
   22       -6.466740   1.000000
   23       -6.411387   1.000000
   24       -5.911565   1.000000
   25       -5.742876   1.000000
   26       -3.904055   1.000000
   27       -3.130348   1.000000
   28       -2.993459   1.000000
   29        0.010745   0.000000
   30        0.039208   0.000000
   31        0.317340   0.000000
   32        2.771340   0.000000
   33        3.230247   0.000000
   34        3.328637   0.000000
   35        4.279149   0.000000
   36        4.464560   0.000000
 
  0.4700000E+00  0.9400000E+00  0.0000000E+00  0.4950495E-02
    1      -20.144678   1.000000
    2      -19.744204   1.000000
    3      -18.587790   1.000000
    4      -18.002092   1.000000
    5      -15.843595   1.000000
    6      -15.288577   1.000000
    7      -15.176117   1.000000
    8      -14.270607   1.000000
    9      -13.949251   1.000000
   10      -13.117633   1.000000
   11      -11.000082   1.000000
   12      -10.984733   1.000000
   13      -10.273348   1.000000
   14       -9.982250   1.000000
   15       -8.338601   1.000000
   16       -7.987711   1.000000
   17       -7.861147   1.000000
   18       -7.851885   1.000000
   19       -7.553272   1.000000
   20       -7.152267   1.000000
   21       -6.693124   1.000000
   22       -6.515752   1.000000
   23       -6.487616   1.000000
   24       -5.849659   1.000000
   25       -5.689287   1.000000
   26       -3.945180   1.000000
   27       -3.150489   1.000000
   28       -2.985608   1.000000
   29        0.011386   0.000000
   30        0.043321   0.000000
   31        0.368680   0.000000
   32        2.734359   0.000000
   33        3.243979   0.000000
   34        3.285517   0.000000
   35        4.410357   0.000000
   36        4.867326   0.000000
 
  0.4650000E+00  0.9300000E+00  0.0000000E+00  0.4950495E-02
    1      -20.170524   1.000000
    2      -19.703358   1.000000
    3      -18.629459   1.000000
    4      -17.946262   1.000000
    5      -15.931564   1.000000
    6      -15.295052   1.000000
    7      -15.168338   1.000000
    8      -14.171418   1.000000
    9      -14.011798   1.000000
   10      -13.054379   1.000000
   11      -11.071246   1.000000
   12      -11.039765   1.000000
   13      -10.210316   1.000000
   14       -9.893288   1.000000
   15       -8.369492   1.000000
   16       -8.073266   1.000000
   17       -7.844232   1.000000
   18       -7.812698   1.000000
   19       -7.632307   1.000000
   20       -7.102073   1.000000
   21       -6.628277   1.000000
   22       -6.564544   1.000000
   23       -6.563485   1.000000
   24       -5.786639   1.000000
   25       -5.638413   1.000000
   26       -3.992486   1.000000
   27       -3.171982   1.000000
   28       -2.978883   1.000000
   29        0.013045   0.000000
   30        0.046275   0.000000
   31        0.428043   0.000000
   32        2.698889   0.000000
   33        3.160814   0.000000
   34        3.341309   0.000000
   35        4.377267   0.000000
   36        4.806241   0.000000
 
  0.4600000E+00  0.9200000E+00  0.0000000E+00  0.4950495E-02
    1      -20.195209   1.000000
    2      -19.661366   1.000000
    3      -18.670015   1.000000
    4      -17.889380   1.000000
    5      -16.021883   1.000000
    6      -15.300738   1.000000
    7      -15.162189   1.000000
    8      -14.071247   1.000000
    9      -14.068105   1.000000
   10      -12.994918   1.000000
   11      -11.137398   1.000000
   12      -11.094136   1.000000
   13      -10.146726   1.000000
   14       -9.804494   1.000000
   15       -8.398956   1.000000
   16       -8.160792   1.000000
   17       -7.835407   1.000000
   18       -7.762899   1.000000
   19       -7.712598   1.000000
   20       -7.055193   1.000000
   21       -6.642209   1.000000
   22       -6.609886   1.000000
   23       -6.564778   1.000000
   24       -5.722522   1.000000
   25       -5.590663   1.000000
   26       -4.045443   1.000000
   27       -3.194699   1.000000
   28       -2.972693   1.000000
   29        0.015898   0.000000
   30        0.049852   0.000000
   31        0.494899   0.000000
   32        2.664986   0.000000
   33        3.077992   0.000000
   34        3.399169   0.000000
   35        4.345052   0.000000
   36        4.624166   0.000000
 
  0.4550000E+00  0.9100000E+00  0.0000000E+00  0.4950495E-02
    1      -20.218729   1.000000
    2      -19.618235   1.000000
    3      -18.709451   1.000000
    4      -17.831440   1.000000
    5      -16.113682   1.000000
    6      -15.305669   1.000000
    7      -15.158223   1.000000
    8      -14.127083   1.000000
    9      -13.961592   1.000000
   10      -12.940470   1.000000
   11      -11.197634   1.000000
   12      -11.147770   1.000000
   13      -10.082759   1.000000
   14       -9.716082   1.000000
   15       -8.427103   1.000000
   16       -8.250055   1.000000
   17       -7.825412   1.000000
   18       -7.794299   1.000000
   19       -7.711790   1.000000
   20       -7.012010   1.000000
   21       -6.720313   1.000000
   22       -6.655532   1.000000
   23       -6.502369   1.000000
   24       -5.657309   1.000000
   25       -5.546160   1.000000
   26       -4.103521   1.000000
   27       -3.218756   1.000000
   28       -2.967719   1.000000
   29        0.020004   0.000000
   30        0.052944   0.000000
   31        0.568703   0.000000
   32        2.633026   0.000000
   33        2.995055   0.000000
   34        3.458998   0.000000
   35        4.312937   0.000000
   36        4.707765   0.000000
 
  0.4500000E+00  0.9000000E+00  0.0000000E+00  0.4950495E-02
    1      -20.241085   1.000000
    2      -19.573968   1.000000
    3      -18.747767   1.000000
    4      -17.772452   1.000000
    5      -16.206330   1.000000
    6      -15.309794   1.000000
    7      -15.157060   1.000000
    8      -14.178506   1.000000
    9      -13.852462   1.000000
   10      -12.892193   1.000000
   11      -11.250688   1.000000
   12      -11.200701   1.000000
   13      -10.018403   1.000000
   14       -9.628444   1.000000
   15       -8.453910   1.000000
   16       -8.340988   1.000000
   17       -7.877600   1.000000
   18       -7.814116   1.000000
   19       -7.659392   1.000000
   20       -6.972170   1.000000
   21       -6.798648   1.000000
   22       -6.699540   1.000000
   23       -6.441570   1.000000
   24       -5.591019   1.000000
   25       -5.505003   1.000000
   26       -4.166146   1.000000
   27       -3.243943   1.000000
   28       -2.963610   1.000000
   29        0.025046   0.000000
   30        0.055696   0.000000
   31        0.649072   0.000000
   32        2.602132   0.000000
   33        2.912722   0.000000
   34        3.519830   0.000000
   35        4.284322   0.000000
   36        4.661089   0.000000
 
  0.4450000E+00  0.8900000E+00  0.0000000E+00  0.4950495E-02
    1      -20.262275   1.000000
    2      -19.528567   1.000000
    3      -18.784961   1.000000
    4      -17.712430   1.000000
    5      -16.299442   1.000000
    6      -15.313050   1.000000
    7      -15.159400   1.000000
    8      -14.224825   1.000000
    9      -13.741233   1.000000
   10      -12.851543   1.000000
   11      -11.295075   1.000000
   12      -11.252931   1.000000
   13       -9.953667   1.000000
   14       -9.541115   1.000000
   15       -8.479283   1.000000
   16       -8.433562   1.000000
   17       -7.962386   1.000000
   18       -7.801748   1.000000
   19       -7.605686   1.000000
   20       -6.935876   1.000000
   21       -6.877159   1.000000
   22       -6.742290   1.000000
   23       -6.382167   1.000000
   24       -5.523792   1.000000
   25       -5.466953   1.000000
   26       -4.231998   1.000000
   27       -3.270344   1.000000
   28       -2.960364   1.000000
   29        0.031884   0.000000
   30        0.057941   0.000000
   31        0.735196   0.000000
   32        2.573143   0.000000
   33        2.829426   0.000000
   34        3.582410   0.000000
   35        4.254171   0.000000
   36        4.607718   0.000000
 
  0.4400000E+00  0.8800000E+00  0.0000000E+00  0.4950495E-02
    1      -20.282297   1.000000
    2      -19.482034   1.000000
    3      -18.821029   1.000000
    4      -17.651372   1.000000
    5      -16.392637   1.000000
    6      -15.315462   1.000000
    7      -15.165937   1.000000
    8      -14.265279   1.000000
    9      -13.628196   1.000000
   10      -12.819920   1.000000
   11      -11.329349   1.000000
   12      -11.304360   1.000000
   13       -9.888585   1.000000
   14       -9.454399   1.000000
   15       -8.527640   1.000000
   16       -8.503263   1.000000
   17       -8.048751   1.000000
   18       -7.788265   1.000000
   19       -7.550723   1.000000
   20       -6.955425   1.000000
   21       -6.903160   1.000000
   22       -6.783777   1.000000
   23       -6.324264   1.000000
   24       -5.455293   1.000000
   25       -5.432161   1.000000
   26       -4.302383   1.000000
   27       -3.297925   1.000000
   28       -2.957778   1.000000
   29        0.040214   0.000000
   30        0.059474   0.000000
   31        0.826709   0.000000
   32        2.545723   0.000000
   33        2.746247   0.000000
   34        3.646778   0.000000
   35        4.227158   0.000000
   36        4.557563   0.000000
 
  0.4350000E+00  0.8700000E+00  0.0000000E+00  0.4950495E-02
    1      -20.301150   1.000000
    2      -19.434367   1.000000
    3      -18.855969   1.000000
    4      -17.589263   1.000000
    5      -16.485700   1.000000
    6      -15.317010   1.000000
    7      -15.177358   1.000000
    8      -14.299167   1.000000
    9      -13.513550   1.000000
   10      -12.798885   1.000000
   11      -11.355238   1.000000
   12      -11.352146   1.000000
   13       -9.823172   1.000000
   14       -9.368528   1.000000
   15       -8.622931   1.000000
   16       -8.525850   1.000000
   17       -8.136800   1.000000
   18       -7.773626   1.000000
   19       -7.494452   1.000000
   20       -7.033100   1.000000
   21       -6.873912   1.000000
   22       -6.823993   1.000000
   23       -6.267981   1.000000
   24       -5.400672   1.000000
   25       -5.385381   1.000000
   26       -4.375733   1.000000
   27       -3.326674   1.000000
   28       -2.956256   1.000000
   29        0.050060   0.000000
   30        0.060576   0.000000
   31        0.923166   0.000000
   32        2.520004   0.000000
   33        2.662708   0.000000
   34        3.712643   0.000000
   35        4.201788   0.000000
   36        4.509699   0.000000
 
  0.4300000E+00  0.8600000E+00  0.0000000E+00  0.4950495E-02
    1      -20.318834   1.000000
    2      -19.385573   1.000000
    3      -18.889781   1.000000
    4      -17.526160   1.000000
    5      -16.578484   1.000000
    6      -15.317693   1.000000
    7      -15.194191   1.000000
    8      -14.325949   1.000000
    9      -13.397539   1.000000
   10      -12.789404   1.000000
   11      -11.405435   1.000000
   12      -11.362403   1.000000
   13       -9.757595   1.000000
   14       -9.283734   1.000000
   15       -8.719330   1.000000
   16       -8.547042   1.000000
   17       -8.226590   1.000000
   18       -7.757835   1.000000
   19       -7.436910   1.000000
   20       -7.110160   1.000000
   21       -6.862937   1.000000
   22       -6.848464   1.000000
   23       -6.213410   1.000000
   24       -5.372397   1.000000
   25       -5.314942   1.000000
   26       -4.452023   1.000000
   27       -3.356583   1.000000
   28       -2.955580   1.000000
   29        0.061064   0.000000
   30        0.061451   0.000000
   31        1.024124   0.000000
   32        2.495727   0.000000
   33        2.578622   0.000000
   34        3.780177   0.000000
   35        4.178255   0.000000
   36        4.462168   0.000000
 
  0.4250000E+00  0.8500000E+00  0.0000000E+00  0.4950495E-02
    1      -20.335344   1.000000
    2      -19.335660   1.000000
    3      -18.922457   1.000000
    4      -17.462029   1.000000
    5      -16.670841   1.000000
    6      -15.317507   1.000000
    7      -15.216694   1.000000
    8      -14.345326   1.000000
    9      -13.280274   1.000000
   10      -12.792007   1.000000
   11      -11.454904   1.000000
   12      -11.359588   1.000000
   13       -9.691660   1.000000
   14       -9.200092   1.000000
   15       -8.816803   1.000000
   16       -8.566835   1.000000
   17       -8.318487   1.000000
   18       -7.740897   1.000000
   19       -7.378111   1.000000
   20       -7.186441   1.000000
   21       -6.900598   1.000000
   22       -6.826501   1.000000
   23       -6.160153   1.000000
   24       -5.347235   1.000000
   25       -5.243738   1.000000
   26       -4.530671   1.000000
   27       -3.387734   1.000000
   28       -2.955766   1.000000
   29        0.060931   0.000000
   30        0.074396   0.000000
   31        1.129194   0.000000
   32        2.473139   0.000000
   33        2.495160   0.000000
   34        3.849031   0.000000
   35        4.156068   0.000000
   36        4.417366   0.000000
 
  0.4200000E+00  0.8400000E+00  0.0000000E+00  0.4950495E-02
    1      -20.350688   1.000000
    2      -19.284618   1.000000
    3      -18.954000   1.000000
    4      -17.396890   1.000000
    5      -16.762668   1.000000
    6      -15.316453   1.000000
    7      -15.244853   1.000000
    8      -14.357272   1.000000
    9      -13.161865   1.000000
   10      -12.806541   1.000000
   11      -11.503659   1.000000
   12      -11.343854   1.000000
   13       -9.625628   1.000000
   14       -9.117652   1.000000
   15       -8.915157   1.000000
   16       -8.585228   1.000000
   17       -8.411917   1.000000
   18       -7.722818   1.000000
   19       -7.318097   1.000000
   20       -7.261780   1.000000
   21       -6.936974   1.000000
   22       -6.808183   1.000000
   23       -6.109451   1.000000
   24       -5.325297   1.000000
   25       -5.171274   1.000000
   26       -4.611331   1.000000
   27       -3.419955   1.000000
   28       -2.956804   1.000000
   29        0.060177   0.000000
   30        0.088979   0.000000
   31        1.238009   0.000000
   32        2.410841   0.000000
   33        2.452154   0.000000
   34        3.919627   0.000000
   35        4.135119   0.000000
   36        4.373409   0.000000
 
  0.4150000E+00  0.8300000E+00  0.0000000E+00  0.4950495E-02
    1      -20.364861   1.000000
    2      -19.232450   1.000000
    3      -18.984404   1.000000
    4      -17.330743   1.000000
    5      -16.853892   1.000000
    6      -15.314537   1.000000
    7      -15.278367   1.000000
    8      -14.362081   1.000000
    9      -13.042456   1.000000
   10      -12.832259   1.000000
   11      -11.551689   1.000000
   12      -11.315990   1.000000
   13       -9.559442   1.000000
   14       -9.036512   1.000000
   15       -9.014192   1.000000
   16       -8.602311   1.000000
   17       -8.506657   1.000000
   18       -7.703786   1.000000
   19       -7.335701   1.000000
   20       -7.256675   1.000000
   21       -6.972028   1.000000
   22       -6.793483   1.000000
   23       -6.061096   1.000000
   24       -5.306631   1.000000
   25       -5.097780   1.000000
   26       -4.694713   1.000000
   27       -3.453094   1.000000
   28       -2.958842   1.000000
   29        0.058819   0.000000
   30        0.105237   0.000000
   31        1.350180   0.000000
   32        2.326148   0.000000
   33        2.432803   0.000000
   34        3.991916   0.000000
   35        4.115969   0.000000
   36        4.331517   0.000000
 
  0.4100000E+00  0.8200000E+00  0.0000000E+00  0.4950495E-02
    1      -20.377861   1.000000
    2      -19.179174   1.000000
    3      -19.013673   1.000000
    4      -17.263608   1.000000
    5      -16.944497   1.000000
    6      -15.316708   1.000000
    7      -15.311758   1.000000
    8      -14.360213   1.000000
    9      -12.922056   1.000000
   10      -12.867944   1.000000
   11      -11.599232   1.000000
   12      -11.277192   1.000000
   13       -9.493271   1.000000
   14       -9.114067   1.000000
   15       -8.956740   1.000000
   16       -8.617901   1.000000
   17       -8.603800   1.000000
   18       -7.683444   1.000000
   19       -7.409084   1.000000
   20       -7.194127   1.000000
   21       -7.005891   1.000000
   22       -6.782256   1.000000
   23       -6.014980   1.000000
   24       -5.290758   1.000000
   25       -5.023405   1.000000
   26       -4.779560   1.000000
   27       -3.487167   1.000000
   28       -2.961648   1.000000
   29        0.057044   0.000000
   30        0.123189   0.000000
   31        1.465493   0.000000
   32        2.241239   0.000000
   33        2.415150   0.000000
   34        4.065731   0.000000
   35        4.098594   0.000000
   36        4.291124   0.000000
 
  0.4050000E+00  0.8100000E+00  0.0000000E+00  0.4950495E-02
    1      -20.389689   1.000000
    2      -19.124782   1.000000
    3      -19.041802   1.000000
    4      -17.195505   1.000000
    5      -17.034299   1.000000
    6      -15.359220   1.000000
    7      -15.308142   1.000000
    8      -14.352332   1.000000
    9      -12.912047   1.000000
   10      -12.800706   1.000000
   11      -11.646193   1.000000
   12      -11.228925   1.000000
   13       -9.427073   1.000000
   14       -9.214308   1.000000
   15       -8.878513   1.000000
   16       -8.702737   1.000000
   17       -8.632090   1.000000
   18       -7.661563   1.000000
   19       -7.480820   1.000000
   20       -7.130427   1.000000
   21       -7.038385   1.000000
   22       -6.774459   1.000000
   23       -5.971524   1.000000
   24       -5.277733   1.000000
   25       -4.948178   1.000000
   26       -4.864447   1.000000
   27       -3.522158   1.000000
   28       -2.965269   1.000000
   29        0.054574   0.000000
   30        0.142821   0.000000
   31        1.584812   0.000000
   32        2.155688   0.000000
   33        2.398927   0.000000
   34        4.082671   0.000000
   35        4.141582   0.000000
   36        4.252558   0.000000
 
  0.4000000E+00  0.8000000E+00  0.0000000E+00  0.4950495E-02
    1      -20.400343   1.000000
    2      -19.069285   1.000000
    3      -19.068783   1.000000
    4      -17.126431   1.000000
    5      -17.123341   1.000000
    6      -15.405239   1.000000
    7      -15.303664   1.000000
    8      -14.339156   1.000000
    9      -12.963152   1.000000
   10      -12.678586   1.000000
   11      -11.692546   1.000000
   12      -11.172616   1.000000
   13       -9.361056   1.000000
   14       -9.315177   1.000000
   15       -8.803437   1.000000
   16       -8.802051   1.000000
   17       -8.644840   1.000000
   18       -7.639025   1.000000
   19       -7.551071   1.000000
   20       -7.069615   1.000000
   21       -7.065418   1.000000
   22       -6.770060   1.000000
   23       -5.930644   1.000000
   24       -5.266891   1.000000
   25       -4.950384   1.000000
   26       -4.872016   1.000000
   27       -3.558054   1.000000
   28       -2.969759   1.000000
   29        0.051623   0.000000
   30        0.163951   0.000000
   31        1.705234   0.000000
   32        2.070147   0.000000
   33        2.384375   0.000000
   34        4.068262   0.000000
   35        4.215242   0.000000
   36        4.218053   0.000000
 
  0.3950000E+00  0.7900000E+00  0.0000000E+00  0.4950495E-02
    1      -20.409824   1.000000
    2      -19.094633   1.000000
    3      -19.012668   1.000000
    4      -17.211552   1.000000
    5      -17.056387   1.000000
    6      -15.454034   1.000000
    7      -15.298408   1.000000
    8      -14.321264   1.000000
    9      -13.019895   1.000000
   10      -12.555595   1.000000
   11      -11.738310   1.000000
   12      -11.109697   1.000000
   13       -9.416386   1.000000
   14       -9.295117   1.000000
   15       -8.905839   1.000000
   16       -8.727266   1.000000
   17       -8.656203   1.000000
   18       -7.619895   1.000000
   19       -7.615336   1.000000
   20       -7.099421   1.000000
   21       -6.999199   1.000000
   22       -6.768968   1.000000
   23       -5.893000   1.000000
   24       -5.258784   1.000000
   25       -5.036967   1.000000
   26       -4.794909   1.000000
   27       -3.594712   1.000000
   28       -2.975373   1.000000
   29        0.048358   0.000000
   30        0.186938   0.000000
   31        1.828334   0.000000
   32        1.984513   0.000000
   33        2.371511   0.000000
   34        4.055669   0.000000
   35        4.179853   0.000000
   36        4.297495   0.000000
 
  0.3900000E+00  0.7800000E+00  0.0000000E+00  0.4950495E-02
    1      -20.418131   1.000000
    2      -19.119324   1.000000
    3      -18.954956   1.000000
    4      -17.298916   1.000000
    5      -16.985412   1.000000
    6      -15.505035   1.000000
    7      -15.292368   1.000000
    8      -14.299288   1.000000
    9      -13.081076   1.000000
   10      -12.431846   1.000000
   11      -11.783668   1.000000
   12      -11.041185   1.000000
   13       -9.517926   1.000000
   14       -9.229274   1.000000
   15       -9.009984   1.000000
   16       -8.666169   1.000000
   17       -8.654553   1.000000
   18       -7.687205   1.000000
   19       -7.590546   1.000000
   20       -7.127670   1.000000
   21       -6.931875   1.000000
   22       -6.770863   1.000000
   23       -5.858890   1.000000
   24       -5.252829   1.000000
   25       -5.124084   1.000000
   26       -4.717002   1.000000
   27       -3.632132   1.000000
   28       -2.981556   1.000000
   29        0.045581   0.000000
   30        0.211113   0.000000
   31        1.898401   0.000000
   32        1.953564   0.000000
   33        2.360012   0.000000
   34        4.044577   0.000000
   35        4.145484   0.000000
   36        4.377521   0.000000
 
  0.3850000E+00  0.7700000E+00  0.0000000E+00  0.4950495E-02
    1      -20.425265   1.000000
    2      -19.142874   1.000000
    3      -18.896143   1.000000
    4      -17.385387   1.000000
    5      -16.913487   1.000000
    6      -15.557691   1.000000
    7      -15.285578   1.000000
    8      -14.273736   1.000000
    9      -13.145711   1.000000
   10      -12.307315   1.000000
   11      -11.828578   1.000000
   12      -10.968365   1.000000
   13       -9.619376   1.000000
   14       -9.163859   1.000000
   15       -9.115755   1.000000
   16       -8.674727   1.000000
   17       -8.583535   1.000000
   18       -7.752963   1.000000
   19       -7.564605   1.000000
   20       -7.154934   1.000000
   21       -6.863384   1.000000
   22       -6.776016   1.000000
   23       -5.828556   1.000000
   24       -5.248691   1.000000
   25       -5.211567   1.000000
   26       -4.638253   1.000000
   27       -3.670211   1.000000
   28       -2.988852   1.000000
   29        0.041578   0.000000