vasp                                    
           1
     6.150000    2.130422    0.000000
    -4.920000    4.260845    0.000000
     0.000000    0.000000   10.000000
   C 
  14
Direct configuration=     1
   0.00000000  0.00000000  0.50000000
   0.28571429  0.85714286  0.50000000
   0.57142857  0.71428571  0.50000000
   0.85714286  0.57142857  0.50000000
   0.14285714  0.42857143  0.50000000
   0.42857143  0.28571429  0.50000000
   0.71428571  0.14285714  0.50000000
   0.23809524  0.04761905  0.50000000
   0.52380952  0.90476190  0.50000000
   0.80952381  0.76190476  0.50000000
   0.09523810  0.61904762  0.50000000
   0.38095238  0.47619048  0.50000000
   0.66666667  0.33333333  0.50000000
   0.95238095  0.19047619  0.50000000
