       N       E                     dE             d eps       ncg     rms          rms(c)
DAV:   1     0.124812818695E+04    0.12481E+04   -0.69013E+04 12632   0.104E+03
DAV:   2    -0.253687930669E+03   -0.15018E+04   -0.14216E+04 18040   0.258E+02
DAV:   3    -0.479138821050E+03   -0.22545E+03   -0.22338E+03 14888   0.103E+02
DAV:   4    -0.485965080003E+03   -0.68263E+01   -0.67754E+01 15016   0.219E+01
DAV:   5    -0.486175122772E+03   -0.21004E+00   -0.20957E+00 16704   0.340E+00
RMM:   6    -0.486180223668E+03   -0.51009E-02   -0.51009E-02 13484   0.593E-01
RMM:   7    -0.486180834492E+03   -0.61082E-03   -0.60257E-03 19245   0.165E-01
RMM:   8    -0.486180840798E+03   -0.63063E-05   -0.65134E-05 16326   0.130E-02
RMM:   9    -0.486180841154E+03   -0.35592E-06   -0.34079E-06 10434   0.374E-03
   1 F= -.48618084E+03 E0= -.48618034E+03  d E =-.995957E-03
