 vasp.5.4.4.18Apr17-6-g9f103f2a35 (build Aug 02 2018 15:13:56) complex          
  
 executed on             LinuxIFC date 2020.05.31  10:38:56
 running on    4 total cores
 distrk:  each k-point on    4 cores,    1 groups
 distr:  one band on NCORES_PER_BAND=   1 cores,    4 groups


--------------------------------------------------------------------------------------------------------


 INCAR:
 POTCAR:    PAW C                                 
 POTCAR:    PAW C                                 
   VRHFIN =C: s2p2                                                              
   LEXCH  = CA                                                                  
   EATOM  =   146.6877 eV,   10.7812 Ry                                         
                                                                                
   TITEL  = PAW C                                                               
   LULTRA =        F    use ultrasoft PP ?                                      
   IUNSCR =        0    unscreen: 0-lin 1-nonlin 2-no                           
   RPACOR =     .000    partial core radius                                     
   POMASS =   12.011; ZVAL   =    4.000    mass and valenz                      
   RCORE  =    1.500    outmost cutoff radius                                   
   RWIGS  =    1.630; RWIGS  =     .863    wigner-seitz radius (au A)           
   ENMAX  =  400.000; ENMIN  =  300.000 eV                                      
   ICORE  =        2    local potential                                         
   LCOR   =        T    correct aug charges                                     
   LPAW   =        T    paw PP                                                  
   EAUG   =  644.873                                                            
   DEXC   =     .000                                                            
   RMAX   =    2.266    core radius for proj-oper                               
   RAUG   =    1.300    factor for augmentation sphere                          
   RDEP   =    1.501    radius for radial grids                                 
   RDEPT  =    1.300    core radius for aug-charge                              
   QCUT   =   -5.516; QGAM   =   11.032    optimization parameters              
                                                                                
   Description                                                                  
     l     E      TYP  RCUT    TYP  RCUT                                        
     0   .000     23  1.200                                                     
     0   .000     23  1.200                                                     
     1   .000     23  1.500                                                     
     1  2.500     23  1.500                                                     
     2   .000      7  1.500                                                     
  local pseudopotential read in
  atomic valenz-charges read in
  non local Contribution for L=           0  read in
    real space projection operators read in
  non local Contribution for L=           0  read in
    real space projection operators read in
  non local Contribution for L=           1  read in
    real space projection operators read in
  non local Contribution for L=           1  read in
    real space projection operators read in
    PAW grid and wavefunctions read in
 
   number of l-projection  operators is LMAX  =           4
   number of lm-projection operators is LMMAX =           8
 
 Optimization of the real space projectors (new method)

 maximal supplied QI-value         = 25.13
 optimisation between [QCUT,QGAM] = [ 10.05, 20.36] = [ 28.30,116.06] Ry 
 Optimized for a Real-space Cutoff    1.30 Angstroem

   l    n(q)    QCUT    max X(q) W(low)/X(q) W(high)/X(q)  e(spline) 
   0      8    10.053     5.578    0.40E-04    0.40E-04    0.54E-07
   0      8    10.053    68.427    0.49E-03    0.71E-03    0.18E-06
   1      7    10.053     2.787    0.79E-04    0.12E-03    0.94E-07
   1      7    10.053     4.374    0.25E-03    0.19E-03    0.21E-06
  PAW C                                 :
 energy of atom  1       EATOM= -146.6877
 kinetic energy error for atom=    0.0289 (will be added to EATOM!!)
 
 
 POSCAR: supercell                               
  positions in direct lattice
  No initial velocities read in
 exchange correlation table for  LEXCH =        2
   RHO(1)=    0.500       N(1)  =     2000
   RHO(2)=  100.500       N(2)  =     4000

 VTST: version 3.1, (03/28/14)

 CHAIN: initializing optimizer
 
 OPT: Using VASP Dynamics algorithm
 CHAIN: Read ICHAIN            0
 
 POSCAR: supercell                               
  positions in direct lattice
  No initial velocities read in
 


--------------------------------------------------------------------------------------------------------


 ion  position               nearest neighbor table
   1  0.000  0.000  0.500-  26 1.42  49 1.42  30 1.42
   2  0.200  0.000  0.500-  27 1.42  45 1.42  26 1.42
   3  0.400  0.000  0.500-  27 1.42  28 1.42  46 1.42
   4  0.600  0.000  0.500-  29 1.42  47 1.42  28 1.42
   5  0.800  0.000  0.500-  29 1.42  30 1.42  48 1.42
   6  0.000  0.200  0.500-  34 1.42  30 1.42  31 1.42
   7  0.200  0.200  0.500-  31 1.42  26 1.42
   8  0.400  0.200  0.500-  27 1.42  32 1.42
   9  0.600  0.200  0.500-  32 1.42  28 1.42  33 1.42
  10  0.800  0.200  0.500-  33 1.42  29 1.42  34 1.42
  11  0.000  0.400  0.500-  34 1.42  35 1.42  39 1.42
  12  0.200  0.400  0.500-  31 1.42  36 1.42  35 1.42
  13  0.400  0.400  0.500-  36 1.42  37 1.42
  14  0.600  0.400  0.500-  32 1.42  38 1.42  37 1.42
  15  0.800  0.400  0.500-  38 1.42  33 1.42  39 1.42
  16  0.000  0.600  0.500-  44 1.42  39 1.42  40 1.42
  17  0.200  0.600  0.500-  40 1.42  35 1.42  41 1.42
  18  0.400  0.600  0.500-  41 1.42  36 1.42  42 1.42
  19  0.600  0.600  0.500-  42 1.42  37 1.42  43 1.42
  20  0.800  0.600  0.500-  43 1.42  38 1.42  44 1.42
  21  0.000  0.800  0.500-  44 1.42  45 1.42  49 1.42
  22  0.200  0.800  0.500-  40 1.42  46 1.42  45 1.42
  23  0.400  0.800  0.500-  46 1.42  41 1.42  47 1.42
  24  0.600  0.800  0.500-  42 1.42  48 1.42  47 1.42
  25  0.800  0.800  0.500-  48 1.42  43 1.42  49 1.42
  26  0.133  0.067  0.500-   1 1.42   7 1.42   2 1.42
  27  0.333  0.067  0.500-   3 1.42   2 1.42   8 1.42
  28  0.533  0.067  0.500-   3 1.42   9 1.42   4 1.42
  29  0.733  0.067  0.500-   5 1.42   4 1.42  10 1.42
  30  0.933  0.067  0.500-   5 1.42   6 1.42   1 1.42
  31  0.133  0.267  0.500-   7 1.42  12 1.42   6 1.42
  32  0.533  0.267  0.500-   9 1.42  14 1.42   8 1.42
  33  0.733  0.267  0.500-  10 1.42  15 1.42   9 1.42
  34  0.933  0.267  0.500-   6 1.42  11 1.42  10 1.42
  35  0.133  0.467  0.500-  11 1.42  17 1.42  12 1.42
  36  0.333  0.467  0.500-  13 1.42  12 1.42  18 1.42
  37  0.533  0.467  0.500-  13 1.42  19 1.42  14 1.42
  38  0.733  0.467  0.500-  15 1.42  14 1.42  20 1.42
  39  0.933  0.467  0.500-  15 1.42  16 1.42  11 1.42
  40  0.133  0.667  0.500-  17 1.42  22 1.42  16 1.42
  41  0.333  0.667  0.500-  18 1.42  23 1.42  17 1.42
  42  0.533  0.667  0.500-  19 1.42  24 1.42  18 1.42
  43  0.733  0.667  0.500-  20 1.42  25 1.42  19 1.42
  44  0.933  0.667  0.500-  16 1.42  21 1.42  20 1.42
  45  0.133  0.867  0.500-   2 1.42  21 1.42  22 1.42
  46  0.333  0.867  0.500-  23 1.42  22 1.42   3 1.42
  47  0.533  0.867  0.500-   4 1.42  23 1.42  24 1.42
  48  0.733  0.867  0.500-  25 1.42  24 1.42   5 1.42
  49  0.933  0.867  0.500-   1 1.42  25 1.42  21 1.42
 
  LATTYP: Found a hexagonal cell.
 ALAT       =    12.3000000000
 C/A-ratio  =     0.8130081301
  
  Lattice vectors:
  
 A1 = (  12.3000000000,   0.0000000000,   0.0000000000)
 A2 = (  -6.1500000000,  10.6521124665,   0.0000000000)
 A3 = (   0.0000000000,   0.0000000000,  10.0000000000)


Analysis of symmetry for initial positions (statically):
=====================================================================
 Subroutine PRICEL returns:
 Original cell was already a primitive cell.
 

 Routine SETGRP: Setting up the symmetry group for a 
 hexagonal supercell.


 Subroutine GETGRP returns: Found 12 space group operations
 (whereof  2 operations were pure point group operations)
 out of a pool of 24 trial point group operations.


The static configuration has the point symmetry C_1h.
 The point group associated with its full space group is D_3h.


Analysis of symmetry for dynamics (positions and initial velocities):
=====================================================================
 Subroutine PRICEL returns:
 Original cell was already a primitive cell.
 

 Routine SETGRP: Setting up the symmetry group for a 
 hexagonal supercell.


 Subroutine GETGRP returns: Found 12 space group operations
 (whereof  2 operations were pure point group operations)
 out of a pool of 24 trial point group operations.


The dynamic configuration has the point symmetry C_1h.
 The point group associated with its full space group is D_3h.


 Subroutine INISYM returns: Found 12 space group operations
 (whereof  2 operations are pure point group operations),
 and found     1 'primitive' translations

 
 
 KPOINTS: KPOINT_file_1                           
  k-points in reciprocal lattice
Space group operators:
 irot       det(A)        alpha          n_x          n_y          n_z        tau_x        tau_y        tau_z
    1     1.000000     0.000000     1.000000     0.000000     0.000000     0.000000     0.000000     0.000000
    2    -1.000000   180.000000     0.000000     0.000000     1.000000     0.000000     0.000000     0.000000
    3    -1.000000    60.000000     0.000000     0.000000    -1.000000     0.400000     0.600000     0.000000
    4     1.000000   120.000000     0.000000     0.000000    -1.000000     0.600000     0.200000     0.000000
    5     1.000000   120.000000     0.000000     0.000000     1.000000     0.400000     0.600000     0.000000
    6    -1.000000    60.000000     0.000000     0.000000     1.000000     0.600000     0.200000     0.000000
    7    -1.000000   180.000000     1.000000     0.000000     0.000000     0.400000     0.000000     0.000000
    8     1.000000   180.000000     0.866025    -0.500000     0.000000     0.600000     0.600000     0.000000
    9    -1.000000   180.000000     0.500000    -0.866025     0.000000     0.000000     0.200000     0.000000
   10     1.000000   180.000000     0.000000     1.000000     0.000000     0.400000     0.000000     0.000000
   11    -1.000000   180.000000    -0.500000    -0.866025     0.000000     0.600000     0.600000     0.000000
   12     1.000000   180.000000     0.866025     0.500000     0.000000     0.000000     0.200000     0.000000


--------------------------------------------------------------------------------------------------------




 Dimension of arrays:
   k-points           NKPTS =     50   k-points in BZ     NKDIM =     50   number of bands    NBANDS=    124
   number of dos      NEDOS =    301   number of ions     NIONS =     49
   non local maximal  LDIM  =      4   non local SUM 2l+1 LMDIM =      8
   total plane-waves  NPLWV = 180000
   max r-space proj   IRMAX =   1318   max aug-charges    IRDMAX=   1821
   dimension x,y,z NGX =    60 NGY =   60 NGZ =   50
   dimension x,y,z NGXF=   120 NGYF=  120 NGZF=  100
   support grid    NGXF=   120 NGYF=  120 NGZF=  100
   ions per type =              49
   NGX,Y,Z   is equivalent  to a cutoff of   8.11,  8.11,  8.31 a.u.
   NGXF,Y,Z  is equivalent  to a cutoff of  16.22, 16.22, 16.62 a.u.

 SYSTEM =  vasp                                    
 POSCAR =  supercell                               

 Startparameter for this run:
   NWRITE =      2    write-flag & timer
   PREC   = normal    normal or accurate (medium, high low for compatibility)
   ISTART =      0    job   : 0-new  1-cont  2-samecut
   ICHARG =     11    charge: 1-file 2-atom 10-const
   ISPIN  =      1    spin polarized calculation?
   LNONCOLLINEAR =      F non collinear calculations
   LSORBIT =      F    spin-orbit coupling
   INIWAV =      1    electr: 0-lowe 1-rand  2-diag
   LASPH  =      F    aspherical Exc in radial PAW
   METAGGA=      F    non-selfconsistent MetaGGA calc.

 Electronic Relaxation 1
   ENCUT  =  400.0 eV  29.40 Ry    5.42 a.u.  20.06 20.06 16.31*2*pi/ulx,y,z
   ENINI  =  400.0     initial cutoff
   ENAUG  =  644.9 eV  augmentation charge cutoff
   NELM   =    200;   NELMIN=  2; NELMDL=  0     # of ELM steps 
   EDIFF  = 0.1E-05   stopping-criterion for ELM
   LREAL  =      T    real-space projection
   NLSPLINE    = F    spline interpolate recip. space projectors
   LCOMPAT=      F    compatible to vasp.4.4
   GGA_COMPAT  = T    GGA compatible to vasp.4.4-vasp.4.6
   LMAXPAW     = -100 max onsite density
   LMAXMIX     =    2 max onsite mixed and CHGCAR
   VOSKOWN=      0    Vosko Wilk Nusair interpolation
   ROPT   =   -0.00050
 Ionic relaxation
   EDIFFG = 0.1E-04   stopping-criterion for IOM
   NSW    =      0    number of steps for IOM
   NBLOCK =      1;   KBLOCK =      1    inner block; outer block 
   IBRION =     -1    ionic relax: 0-MD 1-quasi-New 2-CG
   NFREE  =      0    steps in history (QN), initial steepest desc. (CG)
   ISIF   =      2    stress and relaxation
   IWAVPR =     10    prediction:  0-non 1-charg 2-wave 3-comb
   ISYM   =      2    0-nonsym 1-usesym 2-fastsym
   LCORR  =      T    Harris-Foulkes like correction to forces

   POTIM  = 0.5000    time-step for ionic-motion
   TEIN   =    0.0    initial temperature
   TEBEG  =    0.0;   TEEND  =   0.0 temperature during run
   SMASS  =  -3.00    Nose mass-parameter (am)
   estimated Nose-frequenzy (Omega)   =  0.10E-29 period in steps =****** mass=  -0.346E-26a.u.
   SCALEE = 1.0000    scale energy and forces
   NPACO  =    256;   APACO  = 16.0  distance and # of slots for P.C.
   PSTRESS=    0.0 pullay stress

  Mass of Ions in am
   POMASS =  12.01
  Ionic Valenz
   ZVAL   =   4.00
  Atomic Wigner-Seitz radii
   RWIGS  =  -1.00
  virtual crystal weights 
   VCA    =   1.00
   NELECT =     196.0000    total number of electrons
   NUPDOWN=      -1.0000    fix difference up-down

 DOS related values:
   EMIN   =  10.00;   EMAX   =-10.00  energy-range for DOS
   EFERMI =   0.00
   ISMEAR =    -1;   SIGMA  =   0.02  broadening in eV -4-tet -1-fermi 0-gaus

 Electronic relaxation 2 (details)
   IALGO  =     68    algorithm
   LDIAG  =      T    sub-space diagonalisation (order eigenvalues)
   LSUBROT=      F    optimize rotation matrix (better conditioning)
   TURBO    =      0    0=normal 1=particle mesh
   IRESTART =      0    0=no restart 2=restart with 2 vectors
   NREBOOT  =      0    no. of reboots
   NMIN     =      0    reboot dimension
   EREF     =   0.00    reference energy to select bands
   IMIX   =      4    mixing-type and parameters
     AMIX     =   0.40;   BMIX     =  1.00
     AMIX_MAG =   1.60;   BMIX_MAG =  1.00
     AMIN     =   0.10
     WC   =   100.;   INIMIX=   1;  MIXPRE=   1;  MAXMIX= -45

 Intra band minimization:
   WEIMIN = 0.0000     energy-eigenvalue tresh-hold
   EBREAK =  0.20E-08  absolut break condition
   DEPER  =   0.30     relativ break condition  

   TIME   =   0.40     timestep for ELM

  volume/ion in A,a.u.               =      26.74       180.44
  Fermi-wavevector in a.u.,A,eV,Ry     =   0.869054  1.642273 10.275857  0.755254
  Thomas-Fermi vector in A             =   1.987821
 
 Write flags
   LWAVE        =      T    write WAVECAR
   LDOWNSAMPLE  =      F    k-point downsampling of WAVECAR
   LCHARG       =      F    write CHGCAR
   LVTOT        =      F    write LOCPOT, total local potential
   LVHAR        =      F    write LOCPOT, Hartree potential only
   LELF         =      F    write electronic localiz. function (ELF)
   LORBIT       =      0    0 simple, 1 ext, 2 COOP (PROOUT), +10 PAW based schemes


 Dipole corrections
   LMONO  =      F    monopole corrections only (constant potential shift)
   LDIPOL =      F    correct potential (dipole corrections)
   IDIPOL =      0    1-x, 2-y, 3-z, 4-all directions 
   EPSILON=  1.0000000 bulk dielectric constant

 Exchange correlation treatment:
   GGA     =    --    GGA type
   LEXCH   =     2    internal setting for exchange type
   VOSKOWN=      0    Vosko Wilk Nusair interpolation
   LHFCALC =     F    Hartree Fock is set to
   LHFONE  =     F    Hartree Fock one center treatment
   AEXX    =    0.0000 exact exchange contribution

 Linear response parameters
   LEPSILON=     F    determine dielectric tensor
   LRPA    =     F    only Hartree local field effects (RPA)
   LNABLA  =     F    use nabla operator in PAW spheres
   LVEL    =     F    velocity operator in full k-point grid
   LINTERFAST=   F  fast interpolation
   KINTER  =     0    interpolate to denser k-point grid
   CSHIFT  =0.1000    complex shift for real part using Kramers Kronig
   OMEGAMAX=  -1.0    maximum frequency
   DEG_THRESHOLD= 0.2000000E-02 threshold for treating states as degnerate
   RTIME   =   -0.100 relaxation time in fs
  (WPLASMAI=    0.000 imaginary part of plasma frequency in eV, 0.658/RTIME)
   DFIELD  = 0.0000000 0.0000000 0.0000000 field for delta impulse in time
 
 Orbital magnetization related:
   ORBITALMAG=     F  switch on orbital magnetization
   LCHIMAG   =     F  perturbation theory with respect to B field
   DQ        =  0.001000  dq finite difference perturbation B field
   LLRAUG    =     F  two centre corrections for induced B field



--------------------------------------------------------------------------------------------------------


 Static calculation
 charge density and potential remain constant during run
 non-spin polarized calculation
 RMM-DIIS sequential band-by-band and
  variant of blocked Davidson during initial phase
 perform sub-space diagonalisation
    before iterative eigenvector-optimisation
 no mixing
 using additional bands           26
 real space projection scheme for non local part
 calculate Harris-corrections to forces 
   (improved forces if not selfconsistent)
 use of overlap-Matrix (Vanderbilt PP)
 Fermi-smearing in eV        SIGMA  =   0.02


--------------------------------------------------------------------------------------------------------


  energy-cutoff  :      400.00
  volume of cell :     1310.21
      direct lattice vectors                 reciprocal lattice vectors
    12.300000000  0.000000000  0.000000000     0.081300813  0.046939046  0.000000000
    -6.150000000 10.652112467  0.000000000     0.000000000  0.093878093  0.000000000
     0.000000000  0.000000000 10.000000000     0.000000000  0.000000000  0.100000000

  length of vectors
    12.300000000 12.300000000 10.000000000     0.093878093  0.093878093  0.100000000


 
 k-points in units of 2pi/SCALE and weight: KPOINT_file_1                           
   0.00000000  0.23469523  0.00000000       0.020
   0.00000000  0.23234828  0.00000000       0.020
   0.00000000  0.23000133  0.00000000       0.020
   0.00000000  0.22765437  0.00000000       0.020
   0.00000000  0.22530742  0.00000000       0.020
   0.00000000  0.22296047  0.00000000       0.020
   0.00000000  0.22061352  0.00000000       0.020
   0.00000000  0.21826657  0.00000000       0.020
   0.00000000  0.21591961  0.00000000       0.020
   0.00000000  0.21357266  0.00000000       0.020
   0.00000000  0.21122571  0.00000000       0.020
   0.00000000  0.20887876  0.00000000       0.020
   0.00000000  0.20653180  0.00000000       0.020
   0.00000000  0.20418485  0.00000000       0.020
   0.00000000  0.20183790  0.00000000       0.020
   0.00000000  0.19949095  0.00000000       0.020
   0.00000000  0.19714399  0.00000000       0.020
   0.00000000  0.19479704  0.00000000       0.020
   0.00000000  0.19245009  0.00000000       0.020
   0.00000000  0.19010314  0.00000000       0.020
   0.00000000  0.18775619  0.00000000       0.020
   0.00000000  0.18540923  0.00000000       0.020
   0.00000000  0.18306228  0.00000000       0.020
   0.00000000  0.18071533  0.00000000       0.020
   0.00000000  0.17836838  0.00000000       0.020
   0.00000000  0.17602142  0.00000000       0.020
   0.00000000  0.17367447  0.00000000       0.020
   0.00000000  0.17132752  0.00000000       0.020
   0.00000000  0.16898057  0.00000000       0.020
   0.00000000  0.16663361  0.00000000       0.020
   0.00000000  0.16428666  0.00000000       0.020
   0.00000000  0.16193971  0.00000000       0.020
   0.00000000  0.15959276  0.00000000       0.020
   0.00000000  0.15724581  0.00000000       0.020
   0.00000000  0.15489885  0.00000000       0.020
   0.00000000  0.15255190  0.00000000       0.020
   0.00000000  0.15020495  0.00000000       0.020
   0.00000000  0.14785800  0.00000000       0.020
   0.00000000  0.14551104  0.00000000       0.020
   0.00000000  0.14316409  0.00000000       0.020
   0.00000000  0.14081714  0.00000000       0.020
   0.00000000  0.13847019  0.00000000       0.020
   0.00000000  0.13612323  0.00000000       0.020
   0.00000000  0.13377628  0.00000000       0.020
   0.00000000  0.13142933  0.00000000       0.020
   0.00000000  0.12908238  0.00000000       0.020
   0.00000000  0.12673542  0.00000000       0.020
   0.00000000  0.12438847  0.00000000       0.020
   0.00000000  0.12204152  0.00000000       0.020
   0.00000000  0.11969457  0.00000000       0.020
 
 k-points in reciprocal lattice and weights: KPOINT_file_1                           
   0.00000000  2.50000000  0.00000000       0.020
   0.00000000  2.47500000  0.00000000       0.020
   0.00000000  2.45000000  0.00000000       0.020
   0.00000000  2.42500000  0.00000000       0.020
   0.00000000  2.40000000  0.00000000       0.020
   0.00000000  2.37500000  0.00000000       0.020
   0.00000000  2.35000000  0.00000000       0.020
   0.00000000  2.32500000  0.00000000       0.020
   0.00000000  2.30000000  0.00000000       0.020
   0.00000000  2.27500000  0.00000000       0.020
   0.00000000  2.25000000  0.00000000       0.020
   0.00000000  2.22500000  0.00000000       0.020
   0.00000000  2.20000000  0.00000000       0.020
   0.00000000  2.17500000  0.00000000       0.020
   0.00000000  2.15000000  0.00000000       0.020
   0.00000000  2.12500000  0.00000000       0.020
   0.00000000  2.10000000  0.00000000       0.020
   0.00000000  2.07500000  0.00000000       0.020
   0.00000000  2.05000000  0.00000000       0.020
   0.00000000  2.02500000  0.00000000       0.020
   0.00000000  2.00000000  0.00000000       0.020
   0.00000000  1.97500000  0.00000000       0.020
   0.00000000  1.95000000  0.00000000       0.020
   0.00000000  1.92500000  0.00000000       0.020
   0.00000000  1.90000000  0.00000000       0.020
   0.00000000  1.87500000  0.00000000       0.020
   0.00000000  1.85000000  0.00000000       0.020
   0.00000000  1.82500000  0.00000000       0.020
   0.00000000  1.80000000  0.00000000       0.020
   0.00000000  1.77500000  0.00000000       0.020
   0.00000000  1.75000000  0.00000000       0.020
   0.00000000  1.72500000  0.00000000       0.020
   0.00000000  1.70000000  0.00000000       0.020
   0.00000000  1.67500000  0.00000000       0.020
   0.00000000  1.65000000  0.00000000       0.020
   0.00000000  1.62500000  0.00000000       0.020
   0.00000000  1.60000000  0.00000000       0.020
   0.00000000  1.57500000  0.00000000       0.020
   0.00000000  1.55000000  0.00000000       0.020
   0.00000000  1.52500000  0.00000000       0.020
   0.00000000  1.50000000  0.00000000       0.020
   0.00000000  1.47500000  0.00000000       0.020
   0.00000000  1.45000000  0.00000000       0.020
   0.00000000  1.42500000  0.00000000       0.020
   0.00000000  1.40000000  0.00000000       0.020
   0.00000000  1.37500000  0.00000000       0.020
   0.00000000  1.35000000  0.00000000       0.020
   0.00000000  1.32500000  0.00000000       0.020
   0.00000000  1.30000000  0.00000000       0.020
   0.00000000  1.27500000  0.00000000       0.020
 
 position of ions in fractional coordinates (direct lattice) 
   0.00000000  0.00000000  0.50000000
   0.20000000  0.00000000  0.50000000
   0.40000000  0.00000000  0.50000000
   0.60000000  0.00000000  0.50000000
   0.80000000  0.00000000  0.50000000
   0.00000000  0.20000000  0.50000000
   0.20000000  0.20000000  0.50000000
   0.40000000  0.20000000  0.50000000
   0.60000000  0.20000000  0.50000000
   0.80000000  0.20000000  0.50000000
   0.00000000  0.40000000  0.50000000
   0.20000000  0.40000000  0.50000000
   0.40000000  0.40000000  0.50000000
   0.60000000  0.40000000  0.50000000
   0.80000000  0.40000000  0.50000000
   0.00000000  0.60000000  0.50000000
   0.20000000  0.60000000  0.50000000
   0.40000000  0.60000000  0.50000000
   0.60000000  0.60000000  0.50000000
   0.80000000  0.60000000  0.50000000
   0.00000000  0.80000000  0.50000000
   0.20000000  0.80000000  0.50000000
   0.40000000  0.80000000  0.50000000
   0.60000000  0.80000000  0.50000000
   0.80000000  0.80000000  0.50000000
   0.13333333  0.06666667  0.50000000
   0.33333333  0.06666667  0.50000000
   0.53333333  0.06666667  0.50000000
   0.73333333  0.06666667  0.50000000
   0.93333333  0.06666667  0.50000000
   0.13333333  0.26666667  0.50000000
   0.53333333  0.26666667  0.50000000
   0.73333333  0.26666667  0.50000000
   0.93333333  0.26666667  0.50000000
   0.13333333  0.46666667  0.50000000
   0.33333333  0.46666667  0.50000000
   0.53333333  0.46666667  0.50000000
   0.73333333  0.46666667  0.50000000
   0.93333333  0.46666667  0.50000000
   0.13333333  0.66666667  0.50000000
   0.33333333  0.66666667  0.50000000
   0.53333333  0.66666667  0.50000000
   0.73333333  0.66666667  0.50000000
   0.93333333  0.66666667  0.50000000
   0.13333333  0.86666667  0.50000000
   0.33333333  0.86666667  0.50000000
   0.53333333  0.86666667  0.50000000
   0.73333333  0.86666667  0.50000000
   0.93333333  0.86666667  0.50000000
 
 position of ions in cartesian coordinates  (Angst):
   0.00000000  0.00000000  5.00000000
   2.46000000  0.00000000  5.00000000
   4.92000000  0.00000000  5.00000000
   7.38000000  0.00000000  5.00000000
   9.84000000  0.00000000  5.00000000
  -1.23000000  2.13042249  5.00000000
   1.23000000  2.13042249  5.00000000
   3.69000000  2.13042249  5.00000000
   6.15000000  2.13042249  5.00000000
   8.61000000  2.13042249  5.00000000
  -2.46000000  4.26084499  5.00000000
   0.00000000  4.26084499  5.00000000
   2.46000000  4.26084499  5.00000000
   4.92000000  4.26084499  5.00000000
   7.38000000  4.26084499  5.00000000
  -3.69000000  6.39126748  5.00000000
  -1.23000000  6.39126748  5.00000000
   1.23000000  6.39126748  5.00000000
   3.69000000  6.39126748  5.00000000
   6.15000000  6.39126748  5.00000000
  -4.92000000  8.52168997  5.00000000
  -2.46000000  8.52168997  5.00000000
   0.00000000  8.52168997  5.00000000
   2.46000000  8.52168997  5.00000000
   4.92000000  8.52168997  5.00000000
   1.23000000  0.71014083  5.00000000
   3.69000000  0.71014083  5.00000000
   6.15000000  0.71014083  5.00000000
   8.61000000  0.71014083  5.00000000
  11.07000000  0.71014083  5.00000000
   0.00000000  2.84056332  5.00000000
   4.92000000  2.84056332  5.00000000
   7.38000000  2.84056332  5.00000000
   9.84000000  2.84056332  5.00000000
  -1.23000000  4.97098582  5.00000000
   1.23000000  4.97098582  5.00000000
   3.69000000  4.97098582  5.00000000
   6.15000000  4.97098582  5.00000000
   8.61000000  4.97098582  5.00000000
  -2.46000000  7.10140831  5.00000000
   0.00000000  7.10140831  5.00000000
   2.46000000  7.10140831  5.00000000
   4.92000000  7.10140831  5.00000000
   7.38000000  7.10140831  5.00000000
  -3.69000000  9.23183080  5.00000000
  -1.23000000  9.23183080  5.00000000
   1.23000000  9.23183080  5.00000000
   3.69000000  9.23183080  5.00000000
   6.15000000  9.23183080  5.00000000
 


--------------------------------------------------------------------------------------------------------


 k-point  1 :   0.0000 2.5000 0.0000  plane waves:   23830
 k-point  2 :   0.0000 2.4750 0.0000  plane waves:   23816
 k-point  3 :   0.0000 2.4500 0.0000  plane waves:   23822
 k-point  4 :   0.0000 2.4250 0.0000  plane waves:   23832
 k-point  5 :   0.0000 2.4000 0.0000  plane waves:   23826
 k-point  6 :   0.0000 2.3750 0.0000  plane waves:   23818
 k-point  7 :   0.0000 2.3500 0.0000  plane waves:   23805
 k-point  8 :   0.0000 2.3250 0.0000  plane waves:   23805
 k-point  9 :   0.0000 2.3000 0.0000  plane waves:   23797
 k-point 10 :   0.0000 2.2750 0.0000  plane waves:   23791
 k-point 11 :   0.0000 2.2500 0.0000  plane waves:   23801
 k-point 12 :   0.0000 2.2250 0.0000  plane waves:   23793
 k-point 13 :   0.0000 2.2000 0.0000  plane waves:   23791
 k-point 14 :   0.0000 2.1750 0.0000  plane waves:   23775
 k-point 15 :   0.0000 2.1500 0.0000  plane waves:   23773
 k-point 16 :   0.0000 2.1250 0.0000  plane waves:   23771
 k-point 17 :   0.0000 2.1000 0.0000  plane waves:   23751
 k-point 18 :   0.0000 2.0750 0.0000  plane waves:   23767
 k-point 19 :   0.0000 2.0500 0.0000  plane waves:   23799
 k-point 20 :   0.0000 2.0250 0.0000  plane waves:   23767
 k-point 21 :   0.0000 2.0000 0.0000  plane waves:   23799
 k-point 22 :   0.0000 1.9750 0.0000  plane waves:   23767
 k-point 23 :   0.0000 1.9500 0.0000  plane waves:   23799
 k-point 24 :   0.0000 1.9250 0.0000  plane waves:   23767
 k-point 25 :   0.0000 1.9000 0.0000  plane waves:   23751
 k-point 26 :   0.0000 1.8750 0.0000  plane waves:   23771
 k-point 27 :   0.0000 1.8500 0.0000  plane waves:   23773
 k-point 28 :   0.0000 1.8250 0.0000  plane waves:   23775
 k-point 29 :   0.0000 1.8000 0.0000  plane waves:   23791
 k-point 30 :   0.0000 1.7750 0.0000  plane waves:   23793
 k-point 31 :   0.0000 1.7500 0.0000  plane waves:   23801
 k-point 32 :   0.0000 1.7250 0.0000  plane waves:   23791
 k-point 33 :   0.0000 1.7000 0.0000  plane waves:   23797
 k-point 34 :   0.0000 1.6750 0.0000  plane waves:   23805
 k-point 35 :   0.0000 1.6500 0.0000  plane waves:   23805
 k-point 36 :   0.0000 1.6250 0.0000  plane waves:   23818
 k-point 37 :   0.0000 1.6000 0.0000  plane waves:   23826
 k-point 38 :   0.0000 1.5750 0.0000  plane waves:   23832
 k-point 39 :   0.0000 1.5500 0.0000  plane waves:   23822
 k-point 40 :   0.0000 1.5250 0.0000  plane waves:   23816
 k-point 41 :   0.0000 1.5000 0.0000  plane waves:   23830
 k-point 42 :   0.0000 1.4750 0.0000  plane waves:   23816
 k-point 43 :   0.0000 1.4500 0.0000  plane waves:   23822
 k-point 44 :   0.0000 1.4250 0.0000  plane waves:   23832
 k-point 45 :   0.0000 1.4000 0.0000  plane waves:   23826
 k-point 46 :   0.0000 1.3750 0.0000  plane waves:   23818
 k-point 47 :   0.0000 1.3500 0.0000  plane waves:   23805
 k-point 48 :   0.0000 1.3250 0.0000  plane waves:   23805
 k-point 49 :   0.0000 1.3000 0.0000  plane waves:   23797
 k-point 50 :   0.0000 1.2750 0.0000  plane waves:   23791

 maximum and minimum number of plane-waves per node :     23832    23751

 maximum number of plane-waves:     23832
 maximum index in each direction: 
   IXMAX=   20   IYMAX=   18   IZMAX=   16
   IXMIN=  -20   IYMIN=  -22   IZMIN=  -16


 serial   3D FFT for wavefunctions
 parallel 3D FFT for charge:
    minimum data exchange during FFTs selected (reduces bandwidth)


 total amount of memory used by VASP MPI-rank0   673929. kBytes
=======================================================================

   base      :      30000. kBytes
   nonlr-proj:       5203. kBytes
   fftplans  :      13053. kBytes
   grid      :      24768. kBytes
   one-center:        150. kBytes
   wavefun   :     600755. kBytes
 
     INWAV:  cpu time    0.0000: real time    0.0000
 initial charge density was supplied:
 number of electron     195.9999579 magnetization 
 keeping initial charge density in first step


--------------------------------------------------------------------------------------------------------


 Maximum index for non-local projection operator         1207
 Maximum index for augmentation-charges          367 (set IRDMAX)


--------------------------------------------------------------------------------------------------------


 First call to EWALD:  gamma=   0.162
 Maximum number of real-space cells 3x 3x 3
 Maximum number of reciprocal cells 3x 3x 3

    FEWALD:  cpu time    0.0047: real time    0.0068


----------------------------------------- Iteration    1(   1)  ---------------------------------------


    POTLOK:  cpu time    0.0619: real time    0.1184
    SETDIJ:  cpu time    0.0077: real time    0.0265
     EDDAV:  cpu time   25.7574: real time   51.7214
       DOS:  cpu time    0.0009: real time    0.0009
    --------------------------------------------
      LOOP:  cpu time   25.8303: real time   51.8695

 eigenvalue-minimisations  : 12632
 total energy-change (2. order) : 0.1248128E+04  (-0.6901300E+04)
 number of electron     195.9999579 magnetization 
 augmentation part      195.9999579 magnetization 

 Free energy of the ion-electron system (eV)
  ---------------------------------------------------
  alpha Z        PSCENC =       138.85708194
  Ewald energy   TEWEN  =      9130.28498459
  -Hartree energ DENC   =    -15507.95981469
  -exchange      EXHF   =         0.00000000
  -V(xc)+E(xc)   XCENC  =       707.36475670
  PAW double counting   =      3406.89119115    -3469.63674197
  entropy T*S    EENTRO =        -0.01907248
  eigenvalues    EBANDS =      -343.93554970
  atomic energy  EATOM  =      7186.28135141
  Solvation  Ediel_sol  =         0.00000000
  ---------------------------------------------------
  free energy    TOTEN  =      1248.12818695 eV

  energy without entropy =     1248.14725943  energy(sigma->0) =     1248.13772319


--------------------------------------------------------------------------------------------------------




----------------------------------------- Iteration    1(   2)  ---------------------------------------


     EDDAV:  cpu time   33.4936: real time   67.1522
       DOS:  cpu time    0.0008: real time    0.0011
    --------------------------------------------
      LOOP:  cpu time   33.4956: real time   67.1543

 eigenvalue-minimisations  : 18040
 total energy-change (2. order) :-0.1501816E+04  (-0.1421618E+04)
 number of electron     195.9999579 magnetization 
 augmentation part      195.9999579 magnetization 

 Free energy of the ion-electron system (eV)
  ---------------------------------------------------
  alpha Z        PSCENC =       138.85708194
  Ewald energy   TEWEN  =      9130.28498459
  -Hartree energ DENC   =    -15507.95981469
  -exchange      EXHF   =         0.00000000
  -V(xc)+E(xc)   XCENC  =       707.36475670
  PAW double counting   =      3406.89119115    -3469.63674197
  entropy T*S    EENTRO =        -0.00033541
  eigenvalues    EBANDS =     -1845.77040439
  atomic energy  EATOM  =      7186.28135141
  Solvation  Ediel_sol  =         0.00000000
  ---------------------------------------------------
  free energy    TOTEN  =      -253.68793067 eV

  energy without entropy =     -253.68759525  energy(sigma->0) =     -253.68776296


--------------------------------------------------------------------------------------------------------




----------------------------------------- Iteration    1(   3)  ---------------------------------------


     EDDAV:  cpu time   33.4198: real time   67.0549
       DOS:  cpu time    0.0008: real time    0.0008
    --------------------------------------------
      LOOP:  cpu time   33.4210: real time   67.0561

 eigenvalue-minimisations  : 14888
 total energy-change (2. order) :-0.2254509E+03  (-0.2233776E+03)
 number of electron     195.9999579 magnetization 
 augmentation part      195.9999579 magnetization 

 Free energy of the ion-electron system (eV)
  ---------------------------------------------------
  alpha Z        PSCENC =       138.85708194
  Ewald energy   TEWEN  =      9130.28498459
  -Hartree energ DENC   =    -15507.95981469
  -exchange      EXHF   =         0.00000000
  -V(xc)+E(xc)   XCENC  =       707.36475670
  PAW double counting   =      3406.89119115    -3469.63674197
  entropy T*S    EENTRO =        -0.00027438
  eigenvalues    EBANDS =     -2071.22135580
  atomic energy  EATOM  =      7186.28135141
  Solvation  Ediel_sol  =         0.00000000
  ---------------------------------------------------
  free energy    TOTEN  =      -479.13882105 eV

  energy without entropy =     -479.13854667  energy(sigma->0) =     -479.13868386


--------------------------------------------------------------------------------------------------------




----------------------------------------- Iteration    1(   4)  ---------------------------------------


     EDDAV:  cpu time   27.3186: real time   54.7283
       DOS:  cpu time    0.0009: real time    0.0009
    --------------------------------------------
      LOOP:  cpu time   27.3198: real time   54.7295

 eigenvalue-minimisations  : 15016
 total energy-change (2. order) :-0.6826259E+01  (-0.6775354E+01)
 number of electron     195.9999579 magnetization 
 augmentation part      195.9999579 magnetization 

 Free energy of the ion-electron system (eV)
  ---------------------------------------------------
  alpha Z        PSCENC =       138.85708194
  Ewald energy   TEWEN  =      9130.28498459
  -Hartree energ DENC   =    -15507.95981469
  -exchange      EXHF   =         0.00000000
  -V(xc)+E(xc)   XCENC  =       707.36475670
  PAW double counting   =      3406.89119115    -3469.63674197
  entropy T*S    EENTRO =        -0.00088355
  eigenvalues    EBANDS =     -2078.04700559
  atomic energy  EATOM  =      7186.28135141
  Solvation  Ediel_sol  =         0.00000000
  ---------------------------------------------------
  free energy    TOTEN  =      -485.96508000 eV

  energy without entropy =     -485.96419645  energy(sigma->0) =     -485.96463823


--------------------------------------------------------------------------------------------------------




----------------------------------------- Iteration    1(   5)  ---------------------------------------


     EDDAV:  cpu time   28.8004: real time   54.8919
       DOS:  cpu time    0.0007: real time    0.0007
    --------------------------------------------
      LOOP:  cpu time   28.8014: real time   54.8929

 eigenvalue-minimisations  : 16704
 total energy-change (2. order) :-0.2100428E+00  (-0.2095653E+00)
 number of electron     195.9999579 magnetization 
 augmentation part      195.9999579 magnetization 

 Free energy of the ion-electron system (eV)
  ---------------------------------------------------
  alpha Z        PSCENC =       138.85708194
  Ewald energy   TEWEN  =      9130.28498459
  -Hartree energ DENC   =    -15507.95981469
  -exchange      EXHF   =         0.00000000
  -V(xc)+E(xc)   XCENC  =       707.36475670
  PAW double counting   =      3406.89119115    -3469.63674197
  entropy T*S    EENTRO =        -0.00099343
  eigenvalues    EBANDS =     -2078.25693847
  atomic energy  EATOM  =      7186.28135141
  Solvation  Ediel_sol  =         0.00000000
  ---------------------------------------------------
  free energy    TOTEN  =      -486.17512277 eV

  energy without entropy =     -486.17412934  energy(sigma->0) =     -486.17462606


--------------------------------------------------------------------------------------------------------




----------------------------------------- Iteration    1(   6)  ---------------------------------------


    EDDIAG:  cpu time    2.4201: real time    2.4379
  RMM-DIIS:  cpu time    8.7401: real time    8.7746
    ORTHCH:  cpu time    1.2042: real time    1.6428
       DOS:  cpu time    0.0006: real time    0.0006
    --------------------------------------------
      LOOP:  cpu time   12.3654: real time   12.8563

 eigenvalue-minimisations  : 13484
 total energy-change (2. order) :-0.5100896E-02  (-0.5100895E-02)
 number of electron     195.9999579 magnetization 
 augmentation part      195.9999579 magnetization 

 Free energy of the ion-electron system (eV)
  ---------------------------------------------------
  alpha Z        PSCENC =       138.85708194
  Ewald energy   TEWEN  =      9130.28498459
  -Hartree energ DENC   =    -15507.95981469
  -exchange      EXHF   =         0.00000000
  -V(xc)+E(xc)   XCENC  =       707.36475670
  PAW double counting   =      3406.89119115    -3469.63674197
  entropy T*S    EENTRO =        -0.00099545
  eigenvalues    EBANDS =     -2078.26203735
  atomic energy  EATOM  =      7186.28135141
  Solvation  Ediel_sol  =         0.00000000
  ---------------------------------------------------
  free energy    TOTEN  =      -486.18022367 eV

  energy without entropy =     -486.17922821  energy(sigma->0) =     -486.17972594


--------------------------------------------------------------------------------------------------------




----------------------------------------- Iteration    1(   7)  ---------------------------------------


    EDDIAG:  cpu time    2.2949: real time    2.3126
  RMM-DIIS:  cpu time    9.8629: real time   14.9092
    ORTHCH:  cpu time    2.2908: real time    4.6065
       DOS:  cpu time    0.0061: real time    0.0130
    --------------------------------------------
      LOOP:  cpu time   14.4552: real time   21.8418

 eigenvalue-minimisations  : 19245
 total energy-change (2. order) :-0.6108236E-03  (-0.6025687E-03)
 number of electron     195.9999579 magnetization 
 augmentation part      195.9999579 magnetization 

 Free energy of the ion-electron system (eV)
  ---------------------------------------------------
  alpha Z        PSCENC =       138.85708194
  Ewald energy   TEWEN  =      9130.28498459
  -Hartree energ DENC   =    -15507.95981469
  -exchange      EXHF   =         0.00000000
  -V(xc)+E(xc)   XCENC  =       707.36475670
  PAW double counting   =      3406.89119115    -3469.63674197
  entropy T*S    EENTRO =        -0.00099592
  eigenvalues    EBANDS =     -2078.26264771
  atomic energy  EATOM  =      7186.28135141
  Solvation  Ediel_sol  =         0.00000000
  ---------------------------------------------------
  free energy    TOTEN  =      -486.18083449 eV

  energy without entropy =     -486.17983858  energy(sigma->0) =     -486.18033653


--------------------------------------------------------------------------------------------------------




----------------------------------------- Iteration    1(   8)  ---------------------------------------


    EDDIAG:  cpu time    4.5384: real time    9.1102
  RMM-DIIS:  cpu time    8.5451: real time   17.1037
    ORTHCH:  cpu time    1.9494: real time    3.9092
       DOS:  cpu time    0.0016: real time    0.0018
    --------------------------------------------
      LOOP:  cpu time   15.0349: real time   30.1254

 eigenvalue-minimisations  : 16326
 total energy-change (2. order) :-0.6306282E-05  (-0.6513362E-05)
 number of electron     195.9999579 magnetization 
 augmentation part      195.9999579 magnetization 

 Free energy of the ion-electron system (eV)
  ---------------------------------------------------
  alpha Z        PSCENC =       138.85708194
  Ewald energy   TEWEN  =      9130.28498459
  -Hartree energ DENC   =    -15507.95981469
  -exchange      EXHF   =         0.00000000
  -V(xc)+E(xc)   XCENC  =       707.36475670
  PAW double counting   =      3406.89119115    -3469.63674197
  entropy T*S    EENTRO =        -0.00099595
  eigenvalues    EBANDS =     -2078.26265398
  atomic energy  EATOM  =      7186.28135141
  Solvation  Ediel_sol  =         0.00000000
  ---------------------------------------------------
  free energy    TOTEN  =      -486.18084080 eV

  energy without entropy =     -486.17984484  energy(sigma->0) =     -486.18034282


--------------------------------------------------------------------------------------------------------




----------------------------------------- Iteration    1(   9)  ---------------------------------------


    EDDIAG:  cpu time    3.7150: real time    7.4407
  RMM-DIIS:  cpu time    4.9980: real time   10.0026
    ORTHCH:  cpu time    1.9978: real time    4.0012
       DOS:  cpu time    0.0009: real time    0.0009
    --------------------------------------------
      LOOP:  cpu time   10.7120: real time   21.4458

 eigenvalue-minimisations  : 10434
 total energy-change (2. order) :-0.3559153E-06  (-0.3407928E-06)
 number of electron     195.9999579 magnetization 
 augmentation part      195.9999579 magnetization 

 Free energy of the ion-electron system (eV)
  ---------------------------------------------------
  alpha Z        PSCENC =       138.85708194
  Ewald energy   TEWEN  =      9130.28498459
  -Hartree energ DENC   =    -15507.95981469
  -exchange      EXHF   =         0.00000000
  -V(xc)+E(xc)   XCENC  =       707.36475670
  PAW double counting   =      3406.89119115    -3469.63674197
  entropy T*S    EENTRO =        -0.00099596
  eigenvalues    EBANDS =     -2078.26265433
  atomic energy  EATOM  =      7186.28135141
  Solvation  Ediel_sol  =         0.00000000
  ---------------------------------------------------
  free energy    TOTEN  =      -486.18084115 eV

  energy without entropy =     -486.17984520  energy(sigma->0) =     -486.18034318


--------------------------------------------------------------------------------------------------------




 average (electrostatic) potential at core
  the test charge radii are     0.6991
  (the norm of the test charge is              1.0000)
       1 -61.3452       2 -61.0371       3 -61.3453       4 -61.1771       5 -61.1771
       6 -61.3452       7 -61.9532       8 -61.9534       9 -61.3453      10 -61.1942
      11 -61.0883      12 -61.0370      13 -61.9532      14 -61.0371      15 -61.0884
      16 -60.9669      17 -61.0883      18 -61.3452      19 -61.3452      20 -61.0883
      21 -61.0883      22 -61.0884      23 -61.1942      24 -61.1771      25 -61.1942
      26 -61.4061      27 -61.4062      28 -61.2215      29 -61.1799      30 -61.2214
      31 -61.4061      32 -61.4062      33 -61.2090      34 -61.2089      35 -61.1206
      36 -61.4061      37 -61.4061      38 -61.1207      39 -61.0920      40 -61.0920
      41 -61.2089      42 -61.2214      43 -61.2089      44 -61.0920      45 -61.1207
      46 -61.2090      47 -61.1799      48 -61.1799      49 -61.2089
 
 
 
 E-fermi :  -1.7984     XC(G=0):  -4.3486     alpha+bet : -3.8195


 k-point     1 :       0.0000    2.5000    0.0000
  band No.  band energies     occupation 
      1     -20.7078      2.00000
      2     -20.5970      2.00000
      3     -20.2476      2.00000
      4     -20.0794      2.00000
      5     -19.3410      2.00000
      6     -19.2921      2.00000
      7     -19.2728      2.00000
      8     -19.0687      2.00000
      9     -18.8041      2.00000
     10     -18.6035      2.00000
     11     -17.9467      2.00000
     12     -17.9149      2.00000
     13     -17.8529      2.00000
     14     -17.5094      2.00000
     15     -16.6300      2.00000
     16     -16.6113      2.00000
     17     -16.4776      2.00000
     18     -16.4195      2.00000
     19     -16.1945      2.00000
     20     -16.1322      2.00000
     21     -16.1007      2.00000
     22     -15.7843      2.00000
     23     -15.2879      2.00000
     24     -14.8947      2.00000
     25     -14.7784      2.00000
     26     -14.3566      2.00000
     27     -13.8523      2.00000
     28     -13.8347      2.00000
     29     -13.6342      2.00000
     30     -13.5386      2.00000
     31     -13.1875      2.00000
     32     -12.7988      2.00000
     33     -12.4237      2.00000
     34     -12.4132      2.00000
     35     -12.2045      2.00000
     36     -11.9128      2.00000
     37     -11.7652      2.00000
     38     -11.6130      2.00000
     39     -11.4442      2.00000
     40     -11.2805      2.00000
     41     -11.2545      2.00000
     42     -10.6605      2.00000
     43     -10.1989      2.00000
     44     -10.1384      2.00000
     45     -10.1219      2.00000
     46     -10.0231      2.00000
     47      -9.7521      2.00000
     48      -9.4634      2.00000
     49      -8.9802      2.00000
     50      -8.9667      2.00000
     51      -8.9486      2.00000
     52      -8.8660      2.00000
     53      -8.8455      2.00000
     54      -8.7291      2.00000
     55      -8.6973      2.00000
     56      -8.5007      2.00000
     57      -8.4673      2.00000
     58      -8.4084      2.00000
     59      -8.3005      2.00000
     60      -8.2363      2.00000
     61      -8.2312      2.00000
     62      -8.1544      2.00000
     63      -7.7675      2.00000
     64      -7.7589      2.00000
     65      -7.4258      2.00000
     66      -7.3220      2.00000
     67      -7.3209      2.00000
     68      -7.2927      2.00000
     69      -7.2759      2.00000
     70      -7.2363      2.00000
     71      -7.1236      2.00000
     72      -7.0681      2.00000
     73      -7.0570      2.00000
     74      -6.9564      2.00000
     75      -6.7453      2.00000
     76      -6.6099      2.00000
     77      -6.5363      2.00000
     78      -6.1092      2.00000
     79      -5.9827      2.00000
     80      -5.7488      2.00000
     81      -5.7350      2.00000
     82      -5.7165      2.00000
     83      -5.7127      2.00000
     84      -5.6094      2.00000
     85      -5.3431      2.00000
     86      -5.2593      2.00000
     87      -5.0836      2.00000
     88      -4.3199      2.00000
     89      -4.2752      2.00000
     90      -4.2376      2.00000
     91      -4.1890      2.00000
     92      -4.0816      2.00000
     93      -4.0596      2.00000
     94      -4.0567      2.00000
     95      -3.9523      2.00000
     96      -3.0548      2.00000
     97      -2.5753      2.00000
     98      -1.9202      1.99549
     99      -1.6939      0.01071
    100      -1.6127      0.00019
    101      -0.5302      0.00000
    102      -0.3253      0.00000
    103       0.1646      0.00000
    104       0.4736      0.00000
    105       0.4906      0.00000
    106       0.5564      0.00000
    107       0.8153      0.00000
    108       1.1208      0.00000
    109       1.1688      0.00000
    110       1.2160      0.00000
    111       2.0215      0.00000
    112       2.0935      0.00000
    113       2.1565      0.00000
    114       2.7493      0.00000
    115       2.7777      0.00000
    116       2.7977      0.00000
    117       2.7910      0.00000
    118       2.8315      0.00000
    119       3.7663      0.00000
    120       3.7834      0.00000
    121       4.0364      0.00000
    122       4.0606      0.00000
    123       4.1128      0.00000
    124       4.3011      0.00000

 k-point     2 :       0.0000    2.4750    0.0000
  band No.  band energies     occupation 
      1     -20.7116      2.00000
      2     -20.5921      2.00000
      3     -20.2470      2.00000
      4     -20.0790      2.00000
      5     -19.3681      2.00000
      6     -19.2798      2.00000
      7     -19.2639      2.00000
      8     -19.0663      2.00000
      9     -18.8122      2.00000
     10     -18.5890      2.00000
     11     -17.9512      2.00000
     12     -17.9152      2.00000
     13     -17.8474      2.00000
     14     -17.5086      2.00000
     15     -16.7067      2.00000
     16     -16.5341      2.00000
     17     -16.5279      2.00000
     18     -16.3703      2.00000
     19     -16.2308      2.00000
     20     -16.1058      2.00000
     21     -16.0952      2.00000
     22     -15.7834      2.00000
     23     -15.2926      2.00000
     24     -14.8946      2.00000
     25     -14.7702      2.00000
     26     -14.3525      2.00000
     27     -13.8581      2.00000
     28     -13.8373      2.00000
     29     -13.6278      2.00000
     30     -13.5367      2.00000
     31     -13.1921      2.00000
     32     -12.8091      2.00000
     33     -12.5263      2.00000
     34     -12.3108      2.00000
     35     -12.2077      2.00000
     36     -11.9101      2.00000
     37     -11.7601      2.00000
     38     -11.6018      2.00000
     39     -11.4664      2.00000
     40     -11.2588      2.00000
     41     -11.2569      2.00000
     42     -10.6632      2.00000
     43     -10.2292      2.00000
     44     -10.1331      2.00000
     45     -10.1228      2.00000
     46      -9.9940      2.00000
     47      -9.7504      2.00000
     48      -9.4593      2.00000
     49      -9.0030      2.00000
     50      -8.9719      2.00000
     51      -8.9556      2.00000
     52      -8.8569      2.00000
     53      -8.8391      2.00000
     54      -8.7286      2.00000
     55      -8.6998      2.00000
     56      -8.4879      2.00000
     57      -8.4707      2.00000
     58      -8.4077      2.00000
     59      -8.2913      2.00000
     60      -8.2461      2.00000
     61      -8.2358      2.00000
     62      -8.1403      2.00000
     63      -7.7702      2.00000
     64      -7.7695      2.00000
     65      -7.4165      2.00000
     66      -7.3621      2.00000
     67      -7.3546      2.00000
     68      -7.2852      2.00000
     69      -7.2502      2.00000
     70      -7.2117      2.00000
     71      -7.1165      2.00000
     72      -7.0748      2.00000
     73      -7.0516      2.00000
     74      -6.9544      2.00000
     75      -6.7591      2.00000
     76      -6.6049      2.00000
     77      -6.5165      2.00000
     78      -6.1094      2.00000
     79      -5.9932      2.00000
     80      -5.7595      2.00000
     81      -5.7354      2.00000
     82      -5.7112      2.00000
     83      -5.7008      2.00000
     84      -5.6117      2.00000
     85      -5.3421      2.00000
     86      -5.2569      2.00000
     87      -5.0820      2.00000
     88      -4.3873      2.00000
     89      -4.2896      2.00000
     90      -4.2098      2.00000
     91      -4.1437      2.00000
     92      -4.1218      2.00000
     93      -4.0601      2.00000
     94      -4.0147      2.00000
     95      -3.9501      2.00000
     96      -3.0540      2.00000
     97      -2.5764      2.00000
     98      -1.9203      1.99551
     99      -1.6932      0.01034
    100      -1.6125      0.00018
    101      -0.5295      0.00000
    102      -0.3250      0.00000
    103       0.1684      0.00000
    104       0.4523      0.00000
    105       0.4873      0.00000
    106       0.5785      0.00000
    107       0.8103      0.00000
    108       1.0373      0.00000
    109       1.2218      0.00000
    110       1.2543      0.00000
    111       2.0261      0.00000
    112       2.0809      0.00000
    113       2.1706      0.00000
    114       2.7461      0.00000
    115       2.7501      0.00000
    116       2.7987      0.00000
    117       2.7930      0.00000
    118       2.8624      0.00000
    119       3.7511      0.00000
    120       3.8098      0.00000
    121       3.9970      0.00000
    122       4.0807      0.00000
    123       4.1427      0.00000
    124       4.2543      0.00000

 k-point     3 :       0.0000    2.4500    0.0000
  band No.  band energies     occupation 
      1     -20.7215      2.00000
      2     -20.5790      2.00000
      3     -20.2453      2.00000
      4     -20.0778      2.00000
      5     -19.4094      2.00000
      6     -19.2987      2.00000
      7     -19.2192      2.00000
      8     -19.0628      2.00000
      9     -18.8277      2.00000
     10     -18.5522      2.00000
     11     -17.9623      2.00000
     12     -17.9163      2.00000
     13     -17.8330      2.00000
     14     -17.5062      2.00000
     15     -16.7912      2.00000
     16     -16.5988      2.00000
     17     -16.4481      2.00000
     18     -16.3048      2.00000
     19     -16.2858      2.00000
     20     -16.1177      2.00000
     21     -16.0377      2.00000
     22     -15.7827      2.00000
     23     -15.3043      2.00000
     24     -14.8943      2.00000
     25     -14.7477      2.00000
     26     -14.3397      2.00000
     27     -13.8739      2.00000
     28     -13.8446      2.00000
     29     -13.6107      2.00000
     30     -13.5315      2.00000
     31     -13.2055      2.00000
     32     -12.8382      2.00000
     33     -12.6338      2.00000
     34     -12.2200      2.00000
     35     -12.2036      2.00000
     36     -11.8979      2.00000
     37     -11.7461      2.00000
     38     -11.5724      2.00000
     39     -11.5127      2.00000
     40     -11.2709      2.00000
     41     -11.2062      2.00000
     42     -10.6731      2.00000
     43     -10.2840      2.00000
     44     -10.1255      2.00000
     45     -10.1252      2.00000
     46      -9.9342      2.00000
     47      -9.7452      2.00000
     48      -9.4472      2.00000
     49      -9.0522      2.00000
     50      -8.9849      2.00000
     51      -8.9746      2.00000
     52      -8.8577      2.00000
     53      -8.8222      2.00000
     54      -8.7294      2.00000
     55      -8.6917      2.00000
     56      -8.4764      2.00000
     57      -8.4574      2.00000
     58      -8.4056      2.00000
     59      -8.2752      2.00000
     60      -8.2679      2.00000
     61      -8.2342      2.00000
     62      -8.1125      2.00000
     63      -7.7982      2.00000
     64      -7.7788      2.00000
     65      -7.4134      2.00000
     66      -7.4101      2.00000
     67      -7.3920      2.00000
     68      -7.3099      2.00000
     69      -7.1951      2.00000
     70      -7.1887      2.00000
     71      -7.0938      2.00000
     72      -7.0861      2.00000
     73      -7.0413      2.00000
     74      -6.9486      2.00000
     75      -6.7861      2.00000
     76      -6.5910      2.00000
     77      -6.4690      2.00000
     78      -6.1099      2.00000
     79      -6.0221      2.00000
     80      -5.7781      2.00000
     81      -5.7367      2.00000
     82      -5.6983      2.00000
     83      -5.6788      2.00000
     84      -5.6188      2.00000
     85      -5.3393      2.00000
     86      -5.2500      2.00000
     87      -5.0778      2.00000
     88      -4.4733      2.00000
     89      -4.3614      2.00000
     90      -4.1826      2.00000
     91      -4.1164      2.00000
     92      -4.1142      2.00000
     93      -4.0383      2.00000
     94      -3.9621      2.00000
     95      -3.9444      2.00000
     96      -3.0521      2.00000
     97      -2.5805      2.00000
     98      -1.9210      1.99566
     99      -1.6912      0.00937
    100      -1.6122      0.00018
    101      -0.5273      0.00000
    102      -0.3243      0.00000
    103       0.1796      0.00000
    104       0.4128      0.00000
    105       0.4774      0.00000
    106       0.6203      0.00000
    107       0.7961      0.00000
    108       0.9348      0.00000
    109       1.2371      0.00000
    110       1.3608      0.00000
    111       2.0383      0.00000
    112       2.0569      0.00000
    113       2.1994      0.00000
    114       2.6953      0.00000
    115       2.7525      0.00000
    116       2.7828      0.00000
    117       2.8012      0.00000
    118       2.9095      0.00000
    119       3.7232      0.00000
    120       3.8383      0.00000
    121       3.9187      0.00000
    122       4.1140      0.00000
    123       4.2036      0.00000
    124       4.3807      0.00000

 k-point     4 :       0.0000    2.4250    0.0000
  band No.  band energies     occupation 
      1     -20.7346      2.00000
      2     -20.5604      2.00000
      3     -20.2424      2.00000
      4     -20.0759      2.00000
      5     -19.4516      2.00000
      6     -19.3257      2.00000
      7     -19.1715      2.00000
      8     -19.0667      2.00000
      9     -18.8361      2.00000
     10     -18.5033      2.00000
     11     -17.9765      2.00000
     12     -17.9178      2.00000
     13     -17.8134      2.00000
     14     -17.5025      2.00000
     15     -16.8750      2.00000
     16     -16.6705      2.00000
     17     -16.3703      2.00000
     18     -16.3335      2.00000
     19     -16.2551      2.00000
     20     -16.1217      2.00000
     21     -15.9775      2.00000
     22     -15.7862      2.00000
     23     -15.3166      2.00000
     24     -14.8938      2.00000
     25     -14.7164      2.00000
     26     -14.3176      2.00000
     27     -13.8960      2.00000
     28     -13.8559      2.00000
     29     -13.5869      2.00000
     30     -13.5240      2.00000
     31     -13.2263      2.00000
     32     -12.8817      2.00000
     33     -12.7410      2.00000
     34     -12.2454      2.00000
     35     -12.0967      2.00000
     36     -11.8697      2.00000
     37     -11.7284      2.00000
     38     -11.5600      2.00000
     39     -11.5344      2.00000
     40     -11.2869      2.00000
     41     -11.1468      2.00000
     42     -10.6942      2.00000
     43     -10.3351      2.00000
     44     -10.1296      2.00000
     45     -10.1146      2.00000
     46      -9.8696      2.00000
     47      -9.7370      2.00000
     48      -9.4274      2.00000
     49      -9.1109      2.00000
     50      -9.0018      2.00000
     51      -9.0010      2.00000
     52      -8.8872      2.00000
     53      -8.7987      2.00000
     54      -8.7352      2.00000
     55      -8.6605      2.00000
     56      -8.4775      2.00000
     57      -8.4241      2.00000
     58      -8.4021      2.00000
     59      -8.3028      2.00000
     60      -8.2371      2.00000
     61      -8.2315      2.00000
     62      -8.0824      2.00000
     63      -7.8380      2.00000
     64      -7.7946      2.00000
     65      -7.4657      2.00000
     66      -7.4640      2.00000
     67      -7.3598      2.00000
     68      -7.3438      2.00000
     69      -7.1879      2.00000
     70      -7.1382      2.00000
     71      -7.1215      2.00000
     72      -7.0398      2.00000
     73      -7.0328      2.00000
     74      -6.9395      2.00000
     75      -6.8042      2.00000
     76      -6.5715      2.00000
     77      -6.4086      2.00000
     78      -6.1108      2.00000
     79      -6.0629      2.00000
     80      -5.7974      2.00000
     81      -5.7389      2.00000
     82      -5.6832      2.00000
     83      -5.6540      2.00000
     84      -5.6299      2.00000
     85      -5.3349      2.00000
     86      -5.2377      2.00000
     87      -5.0706      2.00000
     88      -4.5603      2.00000
     89      -4.4349      2.00000
     90      -4.2321      2.00000
     91      -4.1286      2.00000
     92      -4.0343      2.00000
     93      -3.9868      2.00000
     94      -3.9322      2.00000
     95      -3.9088      2.00000
     96      -3.0486      2.00000
     97      -2.5872      2.00000
     98      -1.9220      1.99589
     99      -1.6879      0.00797
    100      -1.6115      0.00018
    101      -0.5236      0.00000
    102      -0.3232      0.00000
    103       0.1978      0.00000
    104       0.3698      0.00000
    105       0.4603      0.00000
    106       0.6661      0.00000
    107       0.7766      0.00000
    108       0.8340      0.00000
    109       1.2598      0.00000
    110       1.4700      0.00000
    111       2.0312      0.00000
    112       2.0583      0.00000
    113       2.2329      0.00000
    114       2.6420      0.00000
    115       2.7565      0.00000
    116       2.7774      0.00000
    117       2.8052      0.00000
    118       2.9559      0.00000
    119       3.6928      0.00000
    120       3.8455      0.00000
    121       3.8900      0.00000
    122       4.0739      0.00000
    123       4.2444      0.00000
    124       4.3099      0.00000

 k-point     5 :       0.0000    2.4000    0.0000
  band No.  band energies     occupation 
      1     -20.7491      2.00000
      2     -20.5384      2.00000
      3     -20.2384      2.00000
      4     -20.0731      2.00000
      5     -19.4931      2.00000
      6     -19.3574      2.00000
      7     -19.1222      2.00000
      8     -19.0839      2.00000
      9     -18.8292      2.00000
     10     -18.4479      2.00000
     11     -17.9918      2.00000
     12     -17.9197      2.00000
     13     -17.7907      2.00000
     14     -17.4977      2.00000
     15     -16.9581      2.00000
     16     -16.7413      2.00000
     17     -16.4050      2.00000
     18     -16.2680      2.00000
     19     -16.2492      2.00000
     20     -16.0891      2.00000
     21     -15.9163      2.00000
     22     -15.7980      2.00000
     23     -15.3231      2.00000
     24     -14.8931      2.00000
     25     -14.6821      2.00000
     26     -14.2856      2.00000
     27     -13.9215      2.00000
     28     -13.8697      2.00000
     29     -13.5605      2.00000
     30     -13.5159      2.00000
     31     -13.2523      2.00000
     32     -12.9345      2.00000
     33     -12.8480      2.00000
     34     -12.2830      2.00000
     35     -11.9909      2.00000
     36     -11.8258      2.00000
     37     -11.7239      2.00000
     38     -11.5865      2.00000
     39     -11.5006      2.00000
     40     -11.2978      2.00000
     41     -11.0843      2.00000
     42     -10.7295      2.00000
     43     -10.3730      2.00000
     44     -10.1351      2.00000
     45     -10.1004      2.00000
     46      -9.8095      2.00000
     47      -9.7264      2.00000
     48      -9.4020      2.00000
     49      -9.1740      2.00000
     50      -9.0298      2.00000
     51      -9.0201      2.00000
     52      -8.9341      2.00000
     53      -8.7714      2.00000
     54      -8.7470      2.00000
     55      -8.6174      2.00000
     56      -8.4708      2.00000
     57      -8.4083      2.00000
     58      -8.3973      2.00000
     59      -8.3102      2.00000
     60      -8.2279      2.00000
     61      -8.2043      2.00000
     62      -8.0531      2.00000
     63      -7.8825      2.00000
     64      -7.8194      2.00000
     65      -7.5152      2.00000
     66      -7.5135      2.00000
     67      -7.3826      2.00000
     68      -7.3281      2.00000
     69      -7.1980      2.00000
     70      -7.1518      2.00000
     71      -7.0799      2.00000
     72      -7.0583      2.00000
     73      -6.9713      2.00000
     74      -6.9274      2.00000
     75      -6.7998      2.00000
     76      -6.5501      2.00000
     77      -6.3420      2.00000
     78      -6.1119      2.00000
     79      -6.1098      2.00000
     80      -5.8160      2.00000
     81      -5.7415      2.00000
     82      -5.6707      2.00000
     83      -5.6449      2.00000
     84      -5.6275      2.00000
     85      -5.3291      2.00000
     86      -5.2211      2.00000
     87      -5.0610      2.00000
     88      -4.6479      2.00000
     89      -4.5090      2.00000
     90      -4.2846      2.00000
     91      -4.1573      2.00000
     92      -3.9608      2.00000
     93      -3.9504      2.00000
     94      -3.8899      2.00000
     95      -3.8550      2.00000
     96      -3.0438      2.00000
     97      -2.5966      2.00000
     98      -1.9234      1.99616
     99      -1.6835      0.00638
    100      -1.6105      0.00017
    101      -0.5177      0.00000
    102      -0.3211      0.00000
    103       0.2225      0.00000
    104       0.3270      0.00000
    105       0.4365      0.00000
    106       0.7004      0.00000
    107       0.7484      0.00000
    108       0.7562      0.00000
    109       1.2863      0.00000
    110       1.5786      0.00000
    111       2.0060      0.00000
    112       2.0846      0.00000
    113       2.2692      0.00000
    114       2.5894      0.00000
    115       2.7621      0.00000
    116       2.7752      0.00000
    117       2.8109      0.00000
    118       3.0324      0.00000
    119       3.6795      0.00000
    120       3.8107      0.00000
    121       3.8332      0.00000
    122       3.9318      0.00000
    123       4.2882      0.00000
    124       4.4038      0.00000

 k-point     6 :       0.0000    2.3750    0.0000
  band No.  band energies     occupation 
      1     -20.7638      2.00000
      2     -20.5140      2.00000
      3     -20.2332      2.00000
      4     -20.0697      2.00000
      5     -19.5336      2.00000
      6     -19.3919      2.00000
      7     -19.1131      2.00000
      8     -19.0716      2.00000
      9     -18.8075      2.00000
     10     -18.3889      2.00000
     11     -18.0070      2.00000
     12     -17.9218      2.00000
     13     -17.7659      2.00000
     14     -17.4922      2.00000
     15     -17.0403      2.00000
     16     -16.8105      2.00000
     17     -16.4609      2.00000
     18     -16.2785      2.00000
     19     -16.1804      2.00000
     20     -16.0278      2.00000
     21     -15.8545      2.00000
     22     -15.8198      2.00000
     23     -15.3197      2.00000
     24     -14.8924      2.00000
     25     -14.6489      2.00000
     26     -14.2436      2.00000
     27     -13.9485      2.00000
     28     -13.8846      2.00000
     29     -13.5359      2.00000
     30     -13.5089      2.00000
     31     -13.2796      2.00000
     32     -12.9921      2.00000
     33     -12.9541      2.00000
     34     -12.3284      2.00000
     35     -11.8871      2.00000
     36     -11.7721      2.00000
     37     -11.7528      2.00000
     38     -11.5704      2.00000
     39     -11.4870      2.00000
     40     -11.2895      2.00000
     41     -11.0211      2.00000
     42     -10.7780      2.00000
     43     -10.3963      2.00000
     44     -10.1414      2.00000
     45     -10.0822      2.00000
     46      -9.7583      2.00000
     47      -9.7141      2.00000
     48      -9.3756      2.00000
     49      -9.2398      2.00000
     50      -9.0548      2.00000
     51      -9.0385      2.00000
     52      -8.9882      2.00000
     53      -8.7615      2.00000
     54      -8.7412      2.00000
     55      -8.5750      2.00000
     56      -8.4580      2.00000
     57      -8.4206      2.00000
     58      -8.3910      2.00000
     59      -8.2850      2.00000
     60      -8.2232      2.00000
     61      -8.1739      2.00000
     62      -8.0257      2.00000
     63      -7.9263      2.00000
     64      -7.8542      2.00000
     65      -7.5618      2.00000
     66      -7.5559      2.00000
     67      -7.4240      2.00000
     68      -7.3094      2.00000
     69      -7.2133      2.00000
     70      -7.1731      2.00000
     71      -7.0950      2.00000
     72      -7.0203      2.00000
     73      -6.9184      2.00000
     74      -6.9030      2.00000
     75      -6.7738      2.00000
     76      -6.5314      2.00000
     77      -6.2720      2.00000
     78      -6.1577      2.00000
     79      -6.1136      2.00000
     80      -5.8337      2.00000
     81      -5.7446      2.00000
     82      -5.6632      2.00000
     83      -5.6629      2.00000
     84      -5.5998      2.00000
     85      -5.3223      2.00000
     86      -5.2004      2.00000
     87      -5.0497      2.00000
     88      -4.7353      2.00000
     89      -4.5823      2.00000
     90      -4.3364      2.00000
     91      -4.1917      2.00000
     92      -3.9602      2.00000
     93      -3.8674      2.00000
     94      -3.8257      2.00000
     95      -3.8013      2.00000
     96      -3.0372      2.00000
     97      -2.6085      2.00000
     98      -1.9250      1.99645
     99      -1.6780      0.00486
    100      -1.6093      0.00016
    101      -0.5110      0.00000
    102      -0.3192      0.00000
    103       0.2514      0.00000
    104       0.2843      0.00000
    105       0.4063      0.00000
    106       0.6275      0.00000
    107       0.7383      0.00000
    108       0.7735      0.00000
    109       1.3151      0.00000
    110       1.6882      0.00000
    111       1.9820      0.00000
    112       2.1158      0.00000
    113       2.3075      0.00000
    114       2.5339      0.00000
    115       2.7691      0.00000
    116       2.7675      0.00000
    117       2.8182      0.00000
    118       3.0722      0.00000
    119       3.6532      0.00000
    120       3.7319      0.00000
    121       3.7732      0.00000
    122       3.9948      0.00000
    123       4.2127      0.00000
    124       4.2927      0.00000

 k-point     7 :       0.0000    2.3500    0.0000
  band No.  band energies     occupation 
      1     -20.7782      2.00000
      2     -20.4878      2.00000
      3     -20.2268      2.00000
      4     -20.0655      2.00000
      5     -19.5732      2.00000
      6     -19.4283      2.00000
      7     -19.1495      2.00000
      8     -19.0198      2.00000
      9     -18.7755      2.00000
     10     -18.3280      2.00000
     11     -18.0218      2.00000
     12     -17.9234      2.00000
     13     -17.7395      2.00000
     14     -17.4867      2.00000
     15     -17.1215      2.00000
     16     -16.8772      2.00000
     17     -16.5169      2.00000
     18     -16.3216      2.00000
     19     -16.0915      2.00000
     20     -15.9631      2.00000
     21     -15.8461      2.00000
     22     -15.7925      2.00000
     23     -15.3060      2.00000
     24     -14.8918      2.00000
     25     -14.6193      2.00000
     26     -14.1933      2.00000
     27     -13.9760      2.00000
     28     -13.8985      2.00000
     29     -13.5193      2.00000
     30     -13.5054      2.00000
     31     -13.3023      2.00000
     32     -13.0588      2.00000
     33     -13.0507      2.00000
     34     -12.3773      2.00000
     35     -11.8203      2.00000
     36     -11.7677      2.00000
     37     -11.7183      2.00000
     38     -11.5251      2.00000
     39     -11.4957      2.00000
     40     -11.2575      2.00000
     41     -10.9579      2.00000
     42     -10.8337      2.00000
     43     -10.4088      2.00000
     44     -10.1482      2.00000
     45     -10.0602      2.00000
     46      -9.7174      2.00000
     47      -9.7011      2.00000
     48      -9.3571      2.00000
     49      -9.3077      2.00000
     50      -9.0684      2.00000
     51      -9.0563      2.00000
     52      -9.0444      2.00000
     53      -8.7730      2.00000
     54      -8.7090      2.00000
     55      -8.5504      2.00000
     56      -8.4432      2.00000
     57      -8.4292      2.00000
     58      -8.3834      2.00000
     59      -8.2462      2.00000
     60      -8.2176      2.00000
     61      -8.1517      2.00000
     62      -8.0023      2.00000
     63      -7.9620      2.00000
     64      -7.8967      2.00000
     65      -7.6087      2.00000
     66      -7.5872      2.00000
     67      -7.4667      2.00000
     68      -7.3198      2.00000
     69      -7.2320      2.00000
     70      -7.1690      2.00000
     71      -7.1420      2.00000
     72      -6.9595      2.00000
     73      -6.9006      2.00000
     74      -6.8418      2.00000
     75      -6.7345      2.00000
     76      -6.5206      2.00000
     77      -6.2004      2.00000
     78      -6.2004      2.00000
     79      -6.1152      2.00000
     80      -5.8503      2.00000
     81      -5.7476      2.00000
     82      -5.6840      2.00000
     83      -5.6603      2.00000
     84      -5.5710      2.00000
     85      -5.3151      2.00000
     86      -5.1760      2.00000
     87      -5.0371      2.00000
     88      -4.8225      2.00000
     89      -4.6543      2.00000
     90      -4.3881      2.00000
     91      -4.2304      2.00000
     92      -3.9682      2.00000
     93      -3.7860      2.00000
     94      -3.7584      2.00000
     95      -3.7475      2.00000
     96      -3.0293      2.00000
     97      -2.6230      2.00000
     98      -1.9268      1.99676
     99      -1.6715      0.00352
    100      -1.6077      0.00014
    101      -0.5031      0.00000
    102      -0.3173      0.00000
    103       0.2428      0.00000
    104       0.2792      0.00000
    105       0.3752      0.00000
    106       0.5331      0.00000
    107       0.7256      0.00000
    108       0.8234      0.00000
    109       1.3450      0.00000
    110       1.7986      0.00000
    111       1.9593      0.00000
    112       2.1503      0.00000
    113       2.3476      0.00000
    114       2.4758      0.00000
    115       2.7582      0.00000
    116       2.7783      0.00000
    117       2.8268      0.00000
    118       3.1191      0.00000
    119       3.6268      0.00000
    120       3.6764      0.00000
    121       3.7158      0.00000
    122       4.0711      0.00000
    123       4.1815      0.00000
    124       4.3701      0.00000

 k-point     8 :       0.0000    2.3250    0.0000
  band No.  band energies     occupation 
      1     -20.7921      2.00000
      2     -20.4600      2.00000
      3     -20.2194      2.00000
      4     -20.0607      2.00000
      5     -19.6116      2.00000
      6     -19.4657      2.00000
      7     -19.1891      2.00000
      8     -18.9669      2.00000
      9     -18.7372      2.00000
     10     -18.2663      2.00000
     11     -18.0360      2.00000
     12     -17.9241      2.00000
     13     -17.7118      2.00000
     14     -17.4821      2.00000
     15     -17.2016      2.00000
     16     -16.9408      2.00000
     17     -16.5723      2.00000
     18     -16.3713      2.00000
     19     -16.0021      2.00000
     20     -15.9346      2.00000
     21     -15.8411      2.00000
     22     -15.7304      2.00000
     23     -15.2837      2.00000
     24     -14.8912      2.00000
     25     -14.5938      2.00000
     26     -14.1396      2.00000
     27     -14.0033      2.00000
     28     -13.9077      2.00000
     29     -13.5190      2.00000
     30     -13.5076      2.00000
     31     -13.3129      2.00000
     32     -13.1604      2.00000
     33     -13.1069      2.00000
     34     -12.4266      2.00000
     35     -11.8712      2.00000
     36     -11.6844      2.00000
     37     -11.6731      2.00000
     38     -11.5004      2.00000
     39     -11.4656      2.00000
     40     -11.2160      2.00000
     41     -10.8956      2.00000
     42     -10.8868      2.00000
     43     -10.4151      2.00000
     44     -10.1553      2.00000
     45     -10.0353      2.00000
     46      -9.6890      2.00000
     47      -9.6873      2.00000
     48      -9.3772      2.00000
     49      -9.3560      2.00000
     50      -9.1001      2.00000
     51      -9.0734      2.00000
     52      -9.0655      2.00000
     53      -8.7749      2.00000
     54      -8.6750      2.00000
     55      -8.5632      2.00000
     56      -8.4310      2.00000
     57      -8.4060      2.00000
     58      -8.3745      2.00000
     59      -8.2111      2.00000
     60      -8.2058      2.00000
     61      -8.1453      2.00000
     62      -7.9942      2.00000
     63      -7.9799      2.00000
     64      -7.9331      2.00000
     65      -7.6544      2.00000
     66      -7.6106      2.00000
     67      -7.5103      2.00000
     68      -7.3551      2.00000
     69      -7.2534      2.00000
     70      -7.1933      2.00000
     71      -7.1442      2.00000
     72      -6.8974      2.00000
     73      -6.8843      2.00000
     74      -6.7793      2.00000
     75      -6.6875      2.00000
     76      -6.5250      2.00000
     77      -6.2314      2.00000
     78      -6.1281      2.00000
     79      -6.1175      2.00000
     80      -5.8661      2.00000
     81      -5.7503      2.00000
     82      -5.7076      2.00000
     83      -5.6631      2.00000
     84      -5.5411      2.00000
     85      -5.3082      2.00000
     86      -5.1493      2.00000
     87      -5.0237      2.00000
     88      -4.9093      2.00000
     89      -4.7245      2.00000
     90      -4.4395      2.00000
     91      -4.2725      2.00000
     92      -3.9818      2.00000
     93      -3.7083      2.00000
     94      -3.6920      2.00000
     95      -3.6915      2.00000
     96      -3.0202      2.00000
     97      -2.6399      2.00000
     98      -1.9285      1.99702
     99      -1.6645      0.00247
    100      -1.6061      0.00013
    101      -0.4930      0.00000
    102      -0.3148      0.00000
[...]
     41     -10.9247      2.00000
     42     -10.7752      2.00000
     43     -10.4205      2.00000
     44     -10.1690      2.00000
     45      -9.9831      2.00000
     46      -9.6774      2.00000
     47      -9.6598      2.00000
     48      -9.5185      2.00000
     49      -9.4019      2.00000
     50      -9.1985      2.00000
     51      -9.1049      2.00000
     52      -9.0308      2.00000
     53      -8.7255      2.00000
     54      -8.6424      2.00000
     55      -8.6026      2.00000
     56      -8.4304      2.00000
     57      -8.3523      2.00000
     58      -8.3148      2.00000
     59      -8.1955      2.00000
     60      -8.1722      2.00000
     61      -8.1469      2.00000
     62      -8.0679      2.00000
     63      -7.9570      2.00000
     64      -7.9130      2.00000
     65      -7.7418      2.00000
     66      -7.6430      2.00000
     67      -7.5991      2.00000
     68      -7.4493      2.00000
     69      -7.3026      2.00000
     70      -7.2976      2.00000
     71      -7.0836      2.00000
     72      -6.8503      2.00000
     73      -6.7697      2.00000
     74      -6.6583      2.00000
     75      -6.5902      2.00000
     76      -6.5817      2.00000
     77      -6.2422      2.00000
     78      -6.1216      2.00000
     79      -5.9872      2.00000
     80      -5.8941      2.00000
     81      -5.7605      2.00000
     82      -5.7493      2.00000
     83      -5.6813      2.00000
     84      -5.4782      2.00000
     85      -5.2998      2.00000
     86      -5.0924      2.00000
     87      -5.0816      2.00000
     88      -4.9962      2.00000
     89      -4.8547      2.00000
     90      -4.5411      2.00000
     91      -4.3658      2.00000
     92      -4.0218      2.00000
     93      -3.5916      2.00000
     94      -3.5621      2.00000
     95      -3.5504      2.00000
     96      -3.0000      2.00000
     97      -2.6809      2.00000
     98      -1.9314      1.99743
     99      -1.6485      0.00111
    100      -1.6024      0.00011
    101      -0.4697      0.00000
    102      -0.3102      0.00000
    103       0.1220      0.00000
    104       0.1996      0.00000
    105       0.2636      0.00000
    106       0.4227      0.00000
    107       0.7390      0.00000
    108       0.9835      0.00000
    109       1.4336      0.00000
    110       1.9002      0.00000
    111       2.1300      0.00000
    112       2.2475      0.00000
    113       2.3022      0.00000
    114       2.4777      0.00000
    115       2.7259      0.00000
    116       2.8140      0.00000
    117       2.8628      0.00000
    118       3.1344      0.00000
    119       3.5206      0.00000
    120       3.5610      0.00000
    121       3.5724      0.00000
    122       3.9513      0.00000
    123       4.1923      0.00000
    124       4.4497      0.00000


--------------------------------------------------------------------------------------------------------


 soft charge-density along one line, spin component           1
         0         1         2         3         4         5         6         7         8         9
 total charge-density along one line
 
 pseudopotential strength for first ion, spin component:           1
 10.669   0.014   0.000   0.000   0.001  -0.000  -0.000  -0.001
  0.014  -0.001  -0.000  -0.000  -0.000  -0.000  -0.000  -0.000
  0.000  -0.000  -4.204  -0.000  -0.001  -0.013  -0.000   0.000
  0.000  -0.000  -0.000  -4.194  -0.000  -0.000  -0.009  -0.000
  0.001  -0.000  -0.001  -0.000  -4.205   0.000  -0.000  -0.013
 -0.000  -0.000  -0.013  -0.000   0.000  -1.092  -0.000  -0.000
 -0.000  -0.000  -0.000  -0.009  -0.000  -0.000  -1.092  -0.000
 -0.001  -0.000   0.000  -0.000  -0.013  -0.000  -0.000  -1.092
 total augmentation occupancy for first ion, spin component:           1
  2.000   0.000   0.000   0.000   0.000   0.000   0.000   0.000
  0.000   0.000   0.000   0.000   0.000   0.000   0.000   0.000
  0.000   0.000   0.667   0.000   0.000   0.000   0.000   0.000
  0.000   0.000   0.000   0.667   0.000   0.000   0.000   0.000
  0.000   0.000   0.000   0.000   0.667   0.000   0.000   0.000
  0.000   0.000   0.000   0.000   0.000   0.000   0.000   0.000
  0.000   0.000   0.000   0.000   0.000   0.000   0.000   0.000
  0.000   0.000   0.000   0.000   0.000   0.000   0.000   0.000


------------------------ aborting loop because EDIFF is reached ----------------------------------------


    CHARGE:  cpu time    1.7915: real time    3.5836
    FORLOC:  cpu time    0.0813: real time    0.1634
    FORNL :  cpu time    3.2065: real time    6.4268
    STRESS:  cpu time    9.7434: real time   19.5397
    FORHAR:  cpu time    0.1184: real time    0.2347
    OFIELD:  cpu time    0.0011: real time    0.0011

  FORCE on cell =-STRESS in cart. coord.  units (eV):
  Direction    XX          YY          ZZ          XY          YZ          ZX
  --------------------------------------------------------------------------------------
  Alpha Z   138.85708   138.85708   138.85708
  Ewald   15617.60799 15617.60799-22104.95500    -0.00000     0.00000     0.00000
  Hartree 15168.49191 15168.49190-14828.82631    -0.00001    -0.00000    -0.00000
  E(xc)    -707.36476  -707.36476  -707.36476     0.00000     0.00000     0.00000
  Local  -33046.42794-33046.43251 34234.77098    -0.00396    -0.00218    -0.00126
  n-local   -92.72354   -93.07802   -91.08880     0.00429    -0.00007    -0.00003
  augment    -6.53734    -6.53584    -5.86927     0.00130     0.00004     0.00002
  Kinetic  2901.09183  2892.32146  3355.70156    -0.05708     0.00024     0.00012
  Fock        0.00000     0.00000     0.00000     0.00000     0.00000     0.00000
  -------------------------------------------------------------------------------------
  Total     -31.56873   -31.56873    -8.77450    -0.00000     0.00000     0.00000
  in kB     -38.60351   -38.60351   -10.72982    -0.00000     0.00000     0.00000
  external pressure =      -29.31 kB  Pullay stress =        0.00 kB


 VOLUME and BASIS-vectors are now :
 -----------------------------------------------------------------------------
  energy-cutoff  :      400.00
  volume of cell :     1310.21
      direct lattice vectors                 reciprocal lattice vectors
    12.300000000  0.000000000  0.000000000     0.081300813  0.046939046  0.000000000
    -6.150000000 10.652112467  0.000000000     0.000000000  0.093878093  0.000000000
     0.000000000  0.000000000 10.000000000     0.000000000  0.000000000  0.100000000

  length of vectors
    12.300000000 12.300000000 10.000000000     0.093878093  0.093878093  0.100000000


 FORCES acting on ions
    electron-ion (+dipol)            ewald-force                    non-local-force                 convergence-correction
 -----------------------------------------------------------------------------------------------
   -.109E+02 -.117E+02 0.324E-07   0.904E+01 0.103E+02 0.745E-16   0.673E+00 0.684E+00 0.000E+00   0.600E+00 0.898E+00 -.330E-08
   -.177E-03 -.291E+02 0.634E-07   -.129E-10 0.268E+02 0.551E-16   -.694E-17 -.472E+00 0.496E-22   -.222E-03 0.167E+01 0.538E-08
   0.109E+02 -.117E+02 0.588E-07   -.904E+01 0.103E+02 0.840E-16   -.673E+00 0.684E+00 0.000E+00   -.601E+00 0.898E+00 0.365E-09
   0.320E+01 -.185E+01 0.347E-11   -.279E+01 0.161E+01 0.543E-16   -.828E-01 0.478E-01 0.265E-22   -.244E+00 0.141E+00 -.108E-11
   -.320E+01 -.185E+01 0.166E-07   0.279E+01 0.161E+01 0.615E-16   0.828E-01 0.478E-01 0.000E+00   0.244E+00 0.141E+00 -.251E-09
   -.156E+02 -.359E+01 -.263E-07   0.135E+02 0.266E+01 0.986E-17   0.929E+00 0.241E+00 0.000E+00   0.108E+01 0.711E-01 -.233E-08
   -.105E+03 -.605E+02 0.464E-08   0.982E+02 0.567E+02 0.408E-16   0.331E+01 0.191E+01 0.000E+00   0.206E+01 0.119E+01 -.148E-06
   0.105E+03 -.605E+02 0.711E-12   -.982E+02 0.567E+02 0.789E-16   -.331E+01 0.191E+01 -.695E-22   -.206E+01 0.119E+01 0.136E-11
   0.156E+02 -.359E+01 -.587E-07   -.135E+02 0.266E+01 0.601E-16   -.929E+00 0.241E+00 -.265E-22   -.108E+01 0.711E-01 -.367E-09
   -.222E-03 -.798E+00 -.422E-07   0.301E-11 0.622E+00 0.341E-16   0.130E-17 0.145E-01 0.000E+00   -.142E-03 -.217E-01 -.499E-08
   -.523E+01 0.221E+01 -.310E-07   0.466E+01 -.171E+01 0.102E-16   0.482E-02 -.123E+00 -.331E-22   0.392E+00 -.387E+00 -.270E-09
   -.252E+02 0.146E+02 0.212E-11   0.232E+02 -.134E+02 0.287E-17   -.409E+00 0.236E+00 -.159E-21   0.145E+01 -.837E+00 0.359E-11
   -.349E-03 0.121E+03 -.464E-08   -.616E-11 -.113E+03 0.359E-16   0.555E-16 -.382E+01 0.000E+00   -.454E-03 -.238E+01 0.148E-06
   0.252E+02 0.146E+02 -.634E-07   -.232E+02 -.134E+02 -.657E-17   0.409E+00 0.236E+00 -.106E-21   -.145E+01 -.837E+00 -.538E-08
   0.523E+01 0.221E+01 -.468E-07   -.466E+01 -.171E+01 0.209E-16   -.482E-02 -.123E+00 0.397E-22   -.392E+00 -.387E+00 -.291E-09
   -.156E-03 0.901E-04 0.128E-12   -.226E-12 0.139E-10 0.141E-16   0.237E-19 0.678E-20 0.000E+00   -.157E-03 0.908E-04 -.395E-11
   -.453E+01 0.342E+01 0.310E-07   0.381E+01 -.318E+01 0.627E-16   0.109E+00 0.573E-01 0.529E-22   0.531E+00 -.146E+00 0.268E-09
   -.471E+01 0.153E+02 0.263E-07   0.444E+01 -.130E+02 0.538E-16   0.255E+00 -.925E+00 0.132E-22   0.477E+00 -.969E+00 0.233E-08
   0.471E+01 0.153E+02 -.324E-07   -.444E+01 -.130E+02 0.111E-16   -.255E+00 -.925E+00 0.000E+00   -.478E+00 -.969E+00 0.330E-08
   0.453E+01 0.342E+01 -.158E-07   -.381E+01 -.318E+01 0.785E-17   -.109E+00 0.573E-01 0.000E+00   -.531E+00 -.146E+00 -.721E-09
   -.699E+00 -.564E+01 0.158E-07   0.853E+00 0.489E+01 -.114E-17   -.104E+00 0.657E-01 0.000E+00   -.139E+00 0.533E+00 0.710E-09
   0.699E+00 -.564E+01 0.468E-07   -.853E+00 0.489E+01 0.590E-16   0.104E+00 0.657E-01 0.000E+00   0.139E+00 0.533E+00 0.286E-09
   0.691E+00 0.399E+00 0.422E-07   -.539E+00 -.311E+00 0.874E-16   -.126E-01 -.725E-02 0.728E-22   0.187E-01 0.110E-01 0.499E-08
   -.170E-03 0.370E+01 -.166E-07   0.284E-10 -.322E+01 0.705E-16   0.173E-17 -.956E-01 -.265E-22   -.166E-03 -.282E+00 0.242E-09
   -.691E+00 0.399E+00 0.497E-12   0.539E+00 -.311E+00 0.693E-17   0.126E-01 -.725E-02 0.000E+00   -.191E-01 0.110E-01 -.546E-11
   -.178E+02 -.343E+02 0.552E-07   0.183E+02 0.316E+02 -.812E-16   0.892E+00 0.181E+01 0.000E+00   0.488E+00 0.211E+01 -.345E-08
   0.178E+02 -.343E+02 0.319E-07   -.183E+02 0.316E+02 -.371E-16   -.892E+00 0.181E+01 0.000E+00   -.487E+00 0.211E+01 -.156E-07
   0.924E+01 -.534E+01 -.537E-11   -.851E+01 0.491E+01 -.684E-16   -.922E-01 0.532E-01 0.000E+00   -.725E+00 0.419E+00 -.142E-11
   0.163E-03 -.122E+01 0.280E-07   -.219E-10 0.114E+01 -.471E-16   0.000E+00 0.171E-02 0.265E-22   0.331E-03 0.624E-01 -.385E-09
   -.924E+01 -.534E+01 0.441E-07   0.851E+01 0.491E+01 -.678E-16   0.922E-01 0.532E-01 0.000E+00   0.726E+00 0.419E+00 0.564E-09
   -.386E+02 0.174E+01 0.233E-07   0.365E+02 0.290E-10 -.987E-16   0.202E+01 -.135E+00 0.106E-21   0.207E+01 -.635E+00 -.503E-08
   0.386E+02 0.174E+01 -.319E-07   -.365E+02 0.249E-10 -.119E-15   -.202E+01 -.135E+00 0.000E+00   -.207E+01 -.635E+00 0.156E-07
   0.631E+01 0.658E+00 -.392E-08   -.556E+01 0.430E-11 -.961E-16   -.328E+00 -.157E+00 0.397E-22   -.483E+00 -.223E+00 0.376E-09
   -.631E+01 0.658E+00 0.122E-07   0.556E+01 0.239E-10 -.535E-16   0.328E+00 -.157E+00 0.000E+00   0.484E+00 -.223E+00 0.133E-09
   -.882E+01 0.509E+01 -.240E-11   0.851E+01 -.491E+01 -.126E-15   0.230E-01 -.133E-01 -.199E-22   0.664E+00 -.383E+00 0.128E-11
   -.208E+02 0.326E+02 -.233E-07   0.183E+02 -.316E+02 -.665E-16   0.113E+01 -.168E+01 0.364E-22   0.159E+01 -.148E+01 0.503E-08
   0.208E+02 0.326E+02 -.552E-07   -.183E+02 -.316E+02 -.148E-15   -.113E+01 -.168E+01 0.000E+00   -.159E+01 -.148E+01 0.345E-08
   0.882E+01 0.509E+01 -.272E-07   -.851E+01 -.491E+01 -.153E-15   -.230E-01 -.133E-01 -.132E-22   -.663E+00 -.383E+00 0.155E-08
   0.153E-03 0.178E+01 -.111E-07   0.304E-11 -.114E+01 -.123E-15   0.867E-18 -.146E+00 0.000E+00   0.331E-03 -.432E+00 -.102E-09
   -.154E+01 -.888E+00 0.111E-07   0.991E+00 0.572E+00 -.121E-15   0.126E+00 0.729E-01 0.794E-22   0.374E+00 0.216E+00 0.978E-10
   -.373E+01 0.514E+01 -.122E-07   0.278E+01 -.482E+01 -.661E-16   0.300E+00 -.205E+00 -.106E-21   0.435E+00 -.308E+00 -.138E-09
   0.159E-03 0.107E+02 -.441E-07   0.758E-11 -.982E+01 -.688E-16   -.260E-17 -.106E+00 -.132E-22   0.300E-03 -.838E+00 -.568E-09
   0.373E+01 0.514E+01 -.161E-07   -.278E+01 -.482E+01 -.947E-16   -.300E+00 -.205E+00 -.265E-22   -.435E+00 -.308E+00 0.149E-08
   0.154E+01 -.888E+00 0.130E-10   -.991E+00 0.572E+00 -.106E-15   -.126E+00 0.729E-01 0.000E+00   -.374E+00 0.216E+00 -.690E-11
   0.157E-03 -.102E+02 0.272E-07   0.170E-10 0.982E+01 -.811E-16   -.108E-18 0.266E-01 -.132E-22   0.300E-03 0.766E+00 -.156E-08
   0.259E+01 -.580E+01 0.394E-08   -.278E+01 0.482E+01 -.948E-16   -.281E-01 0.362E+00 0.000E+00   -.485E-01 0.530E+00 -.380E-09
   0.105E+01 0.609E+00 -.280E-07   -.991E+00 -.572E+00 -.886E-16   -.148E-02 -.855E-03 0.000E+00   -.539E-01 -.315E-01 0.380E-09
   -.105E+01 0.609E+00 0.148E-10   0.991E+00 -.572E+00 -.623E-16   0.148E-02 -.855E-03 0.000E+00   0.545E-01 -.315E-01 -.743E-11
   -.259E+01 -.580E+01 0.161E-07   0.278E+01 0.482E+01 -.101E-15   0.281E-01 0.362E+00 0.000E+00   0.491E-01 0.530E+00 -.150E-08
 -----------------------------------------------------------------------------------------------
   0.534E-04 -.308E-04 0.153E-09   0.933E-14 -.933E-13 -.118E-14   0.243E-15 -.222E-15 -.695E-22   0.392E-02 -.227E-02 -.981E-10
 
 
 POSITION                                       TOTAL-FORCE (eV/Angst)
 -----------------------------------------------------------------------------------
      0.00000      0.00000      5.00000        -0.599618      0.186162      0.000000
      2.46000      0.00000      5.00000        -0.000000     -1.146242      0.000000
      4.92000      0.00000      5.00000         0.599618      0.186162      0.000000
      7.38000      0.00000      5.00000         0.083437     -0.048172      0.000000
      9.84000      0.00000      5.00000        -0.083437     -0.048172      0.000000
     -1.23000      2.13042      5.00000        -0.138588     -0.612366     -0.000000
      1.23000      2.13042      5.00000        -1.292585     -0.746274     -0.000000
      3.69000      2.13042      5.00000         1.292585     -0.746274      0.000000
      6.15000      2.13042      5.00000         0.138588     -0.612366     -0.000000
      8.61000      2.13042      5.00000         0.000000     -0.182711      0.000000
     -2.46000      4.26084      5.00000        -0.174623     -0.002194     -0.000000
      0.00000      4.26084      5.00000        -0.992674      0.573121      0.000000
      2.46000      4.26084      5.00000         0.000000      1.492548      0.000000
      4.92000      4.26084      5.00000         0.992674      0.573121      0.000000
      7.38000      4.26084      5.00000         0.174623     -0.002194      0.000000
     -3.69000      6.39127      5.00000         0.000000     -0.000000      0.000000
     -1.23000      6.39127      5.00000        -0.085411      0.152325     -0.000000
      1.23000      6.39127      5.00000         0.461030      0.426204     -0.000000
      3.69000      6.39127      5.00000        -0.461030      0.426204     -0.000000
      6.15000      6.39127      5.00000         0.085411      0.152325     -0.000000
     -4.92000      8.52169      5.00000        -0.089212     -0.150131     -0.000000
     -2.46000      8.52169      5.00000         0.089212     -0.150131     -0.000000
      0.00000      8.52169      5.00000         0.158232      0.091356     -0.000000
      2.46000      8.52169      5.00000         0.000000      0.096344      0.000000
      4.92000      8.52169      5.00000        -0.158232      0.091356      0.000000
      1.23000      0.71014      5.00000         1.856824      1.270699      0.000000
      3.69000      0.71014      5.00000        -1.856824      1.270699      0.000000
      6.15000      0.71014      5.00000        -0.081472      0.047038      0.000000
      8.61000      0.71014      5.00000         0.000000     -0.008271      0.000000
     11.07000      0.71014      5.00000         0.081472      0.047038      0.000000
      0.00000      2.84056      5.00000         2.028869      0.972707      0.000000
      4.92000      2.84056      5.00000        -2.028869      0.972707      0.000000
      7.38000      2.84056      5.00000        -0.060874      0.278320     -0.000000
      9.84000      2.84056      5.00000         0.060874      0.278320      0.000000
     -1.23000      4.97099      5.00000         0.377194     -0.217773      0.000000
      1.23000      4.97099      5.00000         0.172046     -2.243406      0.000000
      3.69000      4.97099      5.00000        -0.172046     -2.243406      0.000000
      6.15000      4.97099      5.00000        -0.377194     -0.217773     -0.000000
      8.61000      4.97099      5.00000         0.000000      0.052877      0.000000
     -2.46000      7.10141      5.00000        -0.045793     -0.026439     -0.000000
      0.00000      7.10141      5.00000        -0.210595     -0.191879      0.000000
      2.46000      7.10141      5.00000         0.000000     -0.094076     -0.000000
      4.92000      7.10141      5.00000         0.210595     -0.191879      0.000000
      7.38000      7.10141      5.00000         0.045793     -0.026439     -0.000000
     -3.69000      9.23183      5.00000         0.000000      0.435546     -0.000000
     -1.23000      9.23183      5.00000        -0.271469     -0.086441     -0.000000
      1.23000      9.23183      5.00000         0.007163      0.004136     -0.000000
      3.69000      9.23183      5.00000        -0.007163      0.004136     -0.000000
      6.15000      9.23183      5.00000         0.271469     -0.086441     -0.000000
 -----------------------------------------------------------------------------------
    total drift:                                0.003977     -0.002296      0.000000


--------------------------------------------------------------------------------------------------------



  FREE ENERGIE OF THE ION-ELECTRON SYSTEM (eV)
  ---------------------------------------------------
  free  energy   TOTEN  =      -486.18084115 eV

  energy  without entropy=     -486.17984520  energy(sigma->0) =     -486.18034318
 


--------------------------------------------------------------------------------------------------------


    POTLOK:  cpu time    0.0651: real time    0.1349


--------------------------------------------------------------------------------------------------------


 stress matrix after NEB project (eV)
    -31.56873      0.00000      0.00000
     -0.00000    -31.56873     -0.00000
      0.00000      0.00000     -8.77450
  FORCES: max atom, RMS     2.249993    0.955830
  FORCE total and by dimension    6.690811    2.243406
  Stress total and by dimension   45.499021   31.568726
 writing wavefunctions
     LOOP+:  cpu time  222.6113: real time  424.4243
    4ORBIT:  cpu time    0.0000: real time    0.0000

 total amount of memory used by VASP MPI-rank0   673929. kBytes
=======================================================================

   base      :      30000. kBytes
   nonlr-proj:       5203. kBytes
   fftplans  :      13053. kBytes
   grid      :      24768. kBytes
   one-center:        150. kBytes
   wavefun   :     600755. kBytes
 
  
  
 General timing and accounting informations for this job:
 ========================================================
  
                  Total CPU time used (sec):      238.071
                            User time (sec):      206.366
                          System time (sec):       31.704
                         Elapsed time (sec):      456.747
  
                   Maximum memory used (kb):     1549548.
                   Average memory used (kb):           0.
  
                          Minor page faults:       405110
                          Major page faults:            0
                 Voluntary context switches:        46148
