  51  51   0   0
  0.5138078E+02  0.1230000E-08  0.1230000E-08  0.2000000E-08  0.5000000E-15
  1.000000000000000E-004
  CAR 
                                         
      5.96618544    -33.33550452  301     -3.02104096      1.00000000
    -33.336  0.0000E+00  0.0000E+00
    -33.204  0.0000E+00  0.0000E+00
    -33.073  0.0000E+00  0.0000E+00
    -32.942  0.0000E+00  0.0000E+00
    -32.811  0.0000E+00  0.0000E+00
    -32.680  0.0000E+00  0.0000E+00
    -32.549  0.0000E+00  0.0000E+00
    -32.418  0.0000E+00  0.0000E+00
    -32.287  0.0000E+00  0.0000E+00
    -32.156  0.0000E+00  0.0000E+00
    -32.025  0.0000E+00  0.0000E+00
    -31.894  0.0000E+00  0.0000E+00
    -31.763  0.1009E-07  0.1322E-08
    -31.632  0.1398E+00  0.1831E-01
    -31.501  0.1377E+02  0.1822E+01
    -31.370  0.1361E+01  0.2000E+01
    -31.239  0.3346E-05  0.2000E+01
    -31.108  0.0000E+00  0.2000E+01
    -30.977  0.0000E+00  0.2000E+01
    -30.846  0.0000E+00  0.2000E+01
    -30.715  0.0000E+00  0.2000E+01
    -30.584  0.0000E+00  0.2000E+01
    -30.453  0.0000E+00  0.2000E+01
    -30.322  0.0000E+00  0.2000E+01
    -30.191  0.0000E+00  0.2000E+01
    -30.060  0.0000E+00  0.2000E+01
    -29.929  0.0000E+00  0.2000E+01
    -29.798  0.0000E+00  0.2000E+01
    -29.667  0.0000E+00  0.2000E+01
    -29.536  0.0000E+00  0.2000E+01
    -29.405  0.0000E+00  0.2000E+01
    -29.274  0.0000E+00  0.2000E+01
    -29.143  0.0000E+00  0.2000E+01
    -29.012  0.0000E+00  0.2000E+01
    -28.881  0.0000E+00  0.2000E+01
    -28.750  0.0000E+00  0.2000E+01
    -28.619  0.0000E+00  0.2000E+01
    -28.488  0.0000E+00  0.2000E+01
    -28.357  0.0000E+00  0.2000E+01
    -28.226  0.0000E+00  0.2000E+01
    -28.095  0.0000E+00  0.2000E+01
    -27.964  0.0000E+00  0.2000E+01
    -27.833  0.0000E+00  0.2000E+01
    -27.702  0.0000E+00  0.2000E+01
    -27.571  0.0000E+00  0.2000E+01
    -27.440  0.0000E+00  0.2000E+01
    -27.309  0.0000E+00  0.2000E+01
    -27.178  0.0000E+00  0.2000E+01
    -27.047  0.0000E+00  0.2000E+01
    -26.916  0.0000E+00  0.2000E+01
    -26.785  0.0000E+00  0.2000E+01
    -26.654  0.0000E+00  0.2000E+01
    -26.523  0.0000E+00  0.2000E+01
    -26.392  0.0000E+00  0.2000E+01
    -26.261  0.0000E+00  0.2000E+01
    -26.130  0.0000E+00  0.2000E+01
    -25.999  0.0000E+00  0.2000E+01
    -25.868  0.0000E+00  0.2000E+01
    -25.737  0.0000E+00  0.2000E+01
    -25.606  0.0000E+00  0.2000E+01
    -25.475  0.0000E+00  0.2000E+01
    -25.344  0.0000E+00  0.2000E+01
    -25.213  0.0000E+00  0.2000E+01
    -25.082  0.0000E+00  0.2000E+01
    -24.951  0.0000E+00  0.2000E+01
    -24.820  0.0000E+00  0.2000E+01
    -24.689  0.0000E+00  0.2000E+01
    -24.558  0.0000E+00  0.2000E+01
    -24.427  0.0000E+00  0.2000E+01
    -24.296  0.0000E+00  0.2000E+01
    -24.165  0.0000E+00  0.2000E+01
    -24.034  0.0000E+00  0.2000E+01
    -23.903  0.0000E+00  0.2000E+01
    -23.772  0.0000E+00  0.2000E+01
    -23.641  0.0000E+00  0.2000E+01
    -23.510  0.0000E+00  0.2000E+01
    -23.379  0.0000E+00  0.2000E+01
    -23.248  0.0000E+00  0.2000E+01
    -23.117  0.0000E+00  0.2000E+01
    -22.986  0.0000E+00  0.2000E+01
    -22.855  0.0000E+00  0.2000E+01
    -22.724  0.0000E+00  0.2000E+01
    -22.593  0.0000E+00  0.2000E+01
    -22.462  0.7277E-07  0.2000E+01
    -22.331  0.8444E-01  0.2011E+01
    -22.200  0.5592E+01  0.2744E+01
    -22.069  0.8529E+01  0.3861E+01
    -21.938  0.4658E+01  0.4471E+01
    -21.807  0.1110E+02  0.5926E+01
    -21.676  0.5576E+01  0.6656E+01
    -21.545  0.7250E+01  0.7606E+01
    -21.414  0.1345E+02  0.9368E+01
    -21.283  0.4822E+01  0.1000E+02
    -21.152  0.3881E+01  0.1051E+02
    -21.021  0.9404E+01  0.1174E+02
    -20.890  0.1075E+02  0.1315E+02
    -20.759  0.9811E+01  0.1443E+02
    -20.628  0.8532E+01  0.1555E+02
    -20.497  0.1817E+00  0.1557E+02
    -20.366  0.1278E+02  0.1725E+02
    -20.235  0.4427E+01  0.1783E+02
    -20.104  0.1868E+02  0.2028E+02
    -19.973  0.1283E+01  0.2044E+02
    -19.842  0.2871E+01  0.2082E+02
    -19.711  0.1297E+02  0.2252E+02
    -19.580  0.9989E+01  0.2383E+02
    -19.449  0.6383E+01  0.2466E+02
    -19.318  0.6413E+01  0.2551E+02
    -19.187  0.1432E+02  0.2738E+02
    -19.056  0.6322E+01  0.2821E+02
    -18.925  0.5831E+01  0.2897E+02
    -18.794  0.4920E+01  0.2962E+02
    -18.663  0.4450E+01  0.3020E+02
    -18.532  0.1510E+02  0.3218E+02
    -18.401  0.1094E+02  0.3361E+02
    -18.270  0.9613E+01  0.3487E+02
    -18.139  0.2791E+01  0.3524E+02
    -18.008  0.1669E+02  0.3742E+02
    -17.877  0.5215E+01  0.3811E+02
    -17.746  0.3937E+01  0.3862E+02
    -17.615  0.3690E+01  0.3911E+02
    -17.484  0.1622E+02  0.4123E+02
    -17.353  0.5113E+01  0.4190E+02
    -17.222  0.2168E+02  0.4474E+02
    -17.091  0.6975E+01  0.4566E+02
    -16.960  0.3703E+01  0.4614E+02
    -16.829  0.8131E+01  0.4721E+02
    -16.698  0.3317E+01  0.4764E+02
    -16.567  0.1034E+02  0.4899E+02
    -16.436  0.7697E+01  0.5000E+02
    -16.305  0.3965E+01  0.5052E+02
    -16.174  0.7667E+01  0.5153E+02
    -16.043  0.6634E+01  0.5240E+02
    -15.912  0.1326E+02  0.5413E+02
    -15.781  0.1285E+02  0.5582E+02
    -15.650  0.2184E+01  0.5610E+02
    -15.519  0.3991E+01  0.5663E+02
    -15.388  0.3769E+01  0.5712E+02
    -15.257  0.9080E+01  0.5831E+02
    -15.126  0.1863E+02  0.6075E+02
    -14.995  0.8019E+01  0.6180E+02
    -14.864  0.1076E+02  0.6321E+02
    -14.733  0.1204E+02  0.6479E+02
    -14.602  0.5758E+01  0.6554E+02
    -14.471  0.1135E+02  0.6703E+02
    -14.340  0.1081E+02  0.6844E+02
    -14.209  0.2372E+00  0.6847E+02
    -14.078  0.4745E+01  0.6910E+02
    -13.947  0.6100E+01  0.6990E+02
    -13.816  0.1368E+02  0.7169E+02
    -13.685  0.2320E+02  0.7473E+02
    -13.554  0.3092E+01  0.7513E+02
    -13.423  0.3160E+01  0.7555E+02
    -13.292  0.9966E-01  0.7556E+02
    -13.161  0.8638E+01  0.7669E+02
    -13.030  0.1266E+02  0.7835E+02
    -12.899  0.1991E+02  0.8096E+02
    -12.768  0.6259E+01  0.8178E+02
    -12.637  0.7013E+00  0.8187E+02
    -12.506  0.1873E+02  0.8432E+02
    -12.375  0.1093E+02  0.8575E+02
    -12.244  0.5694E+01  0.8650E+02
    -12.113  0.1668E+01  0.8672E+02
    -11.982  0.1289E+02  0.8841E+02
    -11.851  0.2700E+01  0.8876E+02
    -11.720  0.1147E+02  0.9026E+02
    -11.589  0.2083E+02  0.9299E+02
    -11.458  0.1231E+02  0.9461E+02
    -11.327  0.9236E+01  0.9582E+02
    -11.196  0.8285E+01  0.9690E+02
    -11.065  0.9292E+01  0.9812E+02
    -10.934  0.4113E+01  0.9866E+02
    -10.803  0.2286E+02  0.1017E+03
    -10.672  0.4421E+01  0.1022E+03
    -10.541  0.1366E+02  0.1040E+03
    -10.410  0.1085E+02  0.1054E+03
    -10.279  0.1081E+02  0.1069E+03
    -10.148  0.3334E+02  0.1112E+03
    -10.017  0.2108E+02  0.1140E+03
     -9.885  0.9837E+01  0.1153E+03
     -9.754  0.2191E+02  0.1181E+03
     -9.623  0.1890E+02  0.1206E+03
     -9.492  0.3083E+02  0.1247E+03
     -9.361  0.1788E+02  0.1270E+03
     -9.230  0.2839E+02  0.1307E+03
     -9.099  0.2366E+02  0.1338E+03
     -8.968  0.2486E+02  0.1371E+03
     -8.837  0.2470E+02  0.1403E+03
     -8.706  0.1107E+02  0.1418E+03
     -8.575  0.2714E+02  0.1453E+03
     -8.444  0.1346E+02  0.1471E+03
     -8.313  0.1601E+02  0.1492E+03
     -8.182  0.1330E+02  0.1509E+03
     -8.051  0.2871E+02  0.1547E+03
     -7.920  0.2013E+02  0.1573E+03
     -7.789  0.1940E+02  0.1599E+03
     -7.658  0.5814E+01  0.1606E+03
     -7.527  0.8722E+01  0.1618E+03
     -7.396  0.2293E+01  0.1621E+03
     -7.265  0.3305E+02  0.1664E+03
     -7.134  0.2709E+02  0.1700E+03
     -7.003  0.3879E+01  0.1705E+03
     -6.872  0.1686E+02  0.1727E+03
     -6.741  0.9724E+01  0.1739E+03
     -6.610  0.1722E+02  0.1762E+03
     -6.479  0.1246E+02  0.1778E+03
     -6.348  0.8231E+01  0.1789E+03
     -6.217  0.1435E+02  0.1808E+03
     -6.086  0.1537E+02  0.1828E+03
     -5.955  0.1104E+02  0.1842E+03
     -5.824  0.2013E+02  0.1869E+03
     -5.693  0.1013E+02  0.1882E+03
     -5.562  0.1014E+02  0.1895E+03
     -5.431  0.4173E+01  0.1901E+03
     -5.300  0.1041E+02  0.1915E+03
     -5.169  0.4885E+01  0.1921E+03
     -5.038  0.1419E+02  0.1940E+03
     -4.907  0.2541E+02  0.1973E+03
     -4.776  0.5235E+01  0.1980E+03
     -4.645  0.1954E+01  0.1982E+03
     -4.514  0.7687E-03  0.1982E+03
     -4.383  0.1194E-01  0.1982E+03
     -4.252  0.1088E+02  0.1996E+03
     -4.121  0.1385E+02  0.2015E+03
     -3.990  0.7081E+00  0.2016E+03
     -3.859  0.1701E-02  0.2016E+03
     -3.728  0.2241E+01  0.2018E+03
     -3.597  0.1150E+01  0.2020E+03
     -3.466  0.1374E+01  0.2022E+03
     -3.335  0.8704E+01  0.2033E+03
     -3.204  0.9815E+01  0.2046E+03
     -3.073  0.1043E+02  0.2060E+03
     -2.942  0.5885E+00  0.2060E+03
     -2.811  0.5680E+01  0.2068E+03
     -2.680  0.5813E+01  0.2076E+03
     -2.549  0.2601E-02  0.2076E+03
     -2.418  0.7974E+00  0.2077E+03
     -2.287  0.2715E+01  0.2080E+03
     -2.156  0.3179E+01  0.2084E+03
     -2.025  0.9425E-01  0.2084E+03
     -1.894  0.3242E-07  0.2084E+03
     -1.763  0.8115E-05  0.2084E+03
     -1.632  0.1391E+01  0.2086E+03
     -1.501  0.9527E+01  0.2099E+03
     -1.370  0.1390E+02  0.2117E+03
     -1.239  0.6291E+00  0.2118E+03
     -1.108  0.2704E-02  0.2118E+03
     -0.977  0.2722E+01  0.2121E+03
     -0.846  0.1665E+02  0.2143E+03
     -0.715  0.1984E+02  0.2169E+03
     -0.584  0.1557E+02  0.2190E+03
     -0.453  0.4556E+01  0.2196E+03
     -0.322  0.2358E+00  0.2196E+03
     -0.191  0.6068E+01  0.2204E+03
     -0.060  0.1127E+02  0.2219E+03
      0.071  0.9481E+01  0.2231E+03
      0.202  0.8633E+00  0.2232E+03
      0.333  0.1828E+02  0.2256E+03
      0.464  0.5915E+01  0.2264E+03
      0.595  0.3588E+01  0.2268E+03
      0.726  0.1462E+02  0.2288E+03
      0.857  0.1338E+02  0.2305E+03
      0.988  0.6407E+01  0.2314E+03
      1.119  0.1249E+02  0.2330E+03
      1.250  0.1282E+02  0.2347E+03
      1.381  0.1020E+02  0.2360E+03
      1.512  0.1452E+02  0.2379E+03
      1.643  0.2298E+02  0.2409E+03
      1.774  0.1683E+02  0.2431E+03
      1.905  0.2534E+02  0.2464E+03
      2.036  0.9118E+01  0.2476E+03
      2.167  0.1749E+02  0.2499E+03
      2.298  0.2603E+02  0.2533E+03
      2.429  0.2702E+02  0.2569E+03
      2.560  0.7318E+01  0.2578E+03
      2.691  0.6258E+01  0.2587E+03
      2.822  0.9615E+01  0.2599E+03
      2.953  0.4537E+01  0.2605E+03
      3.084  0.9285E+01  0.2617E+03
      3.215  0.2439E+01  0.2620E+03
      3.346  0.4693E+01  0.2627E+03
      3.477  0.2384E-01  0.2627E+03
      3.608  0.3627E+01  0.2631E+03
      3.739  0.3155E+01  0.2636E+03
      3.870  0.9304E-03  0.2636E+03
      4.001  0.7385E-06  0.2636E+03
      4.132  0.3017E+00  0.2636E+03
      4.263  0.3060E+01  0.2640E+03
      4.394  0.3117E-01  0.2640E+03
      4.525  0.2261E-08  0.2640E+03
      4.656  0.0000E+00  0.2640E+03
      4.787  0.0000E+00  0.2640E+03
      4.918  0.0000E+00  0.2640E+03
      5.049  0.0000E+00  0.2640E+03
      5.180  0.0000E+00  0.2640E+03
      5.311  0.0000E+00  0.2640E+03
      5.442  0.0000E+00  0.2640E+03
      5.573  0.0000E+00  0.2640E+03
      5.704  0.0000E+00  0.2640E+03
      5.835  0.0000E+00  0.2640E+03
      5.966  0.0000E+00  0.2640E+03
