  51  51   0   0
  0.5138078E+02  0.1230000E-08  0.1230000E-08  0.2000000E-08  0.5000000E-15
  1.000000000000000E-004
  CAR 
                                         
      5.98319901    -33.65231095  301     -3.01701377      1.00000000
    -33.652  0.0000E+00  0.0000E+00
    -33.520  0.0000E+00  0.0000E+00
    -33.388  0.0000E+00  0.0000E+00
    -33.256  0.0000E+00  0.0000E+00
    -33.124  0.0000E+00  0.0000E+00
    -32.992  0.0000E+00  0.0000E+00
    -32.860  0.0000E+00  0.0000E+00
    -32.727  0.0000E+00  0.0000E+00
    -32.595  0.0000E+00  0.0000E+00
    -32.463  0.0000E+00  0.0000E+00
    -32.331  0.0000E+00  0.0000E+00
    -32.199  0.0000E+00  0.0000E+00
    -32.067  0.7252E-08  0.9581E-09
    -31.935  0.1313E+00  0.1734E-01
    -31.803  0.1368E+02  0.1825E+01
    -31.671  0.1322E+01  0.2000E+01
    -31.538  0.2648E-05  0.2000E+01
    -31.406  0.0000E+00  0.2000E+01
    -31.274  0.0000E+00  0.2000E+01
    -31.142  0.0000E+00  0.2000E+01
    -31.010  0.0000E+00  0.2000E+01
    -30.878  0.0000E+00  0.2000E+01
    -30.746  0.0000E+00  0.2000E+01
    -30.614  0.0000E+00  0.2000E+01
    -30.481  0.0000E+00  0.2000E+01
    -30.349  0.0000E+00  0.2000E+01
    -30.217  0.0000E+00  0.2000E+01
    -30.085  0.0000E+00  0.2000E+01
    -29.953  0.0000E+00  0.2000E+01
    -29.821  0.0000E+00  0.2000E+01
    -29.689  0.0000E+00  0.2000E+01
    -29.557  0.0000E+00  0.2000E+01
    -29.425  0.0000E+00  0.2000E+01
    -29.292  0.0000E+00  0.2000E+01
    -29.160  0.0000E+00  0.2000E+01
    -29.028  0.0000E+00  0.2000E+01
    -28.896  0.0000E+00  0.2000E+01
    -28.764  0.0000E+00  0.2000E+01
    -28.632  0.0000E+00  0.2000E+01
    -28.500  0.0000E+00  0.2000E+01
    -28.368  0.0000E+00  0.2000E+01
    -28.235  0.0000E+00  0.2000E+01
    -28.103  0.0000E+00  0.2000E+01
    -27.971  0.0000E+00  0.2000E+01
    -27.839  0.0000E+00  0.2000E+01
    -27.707  0.0000E+00  0.2000E+01
    -27.575  0.0000E+00  0.2000E+01
    -27.443  0.0000E+00  0.2000E+01
    -27.311  0.0000E+00  0.2000E+01
    -27.179  0.0000E+00  0.2000E+01
    -27.046  0.0000E+00  0.2000E+01
    -26.914  0.0000E+00  0.2000E+01
    -26.782  0.0000E+00  0.2000E+01
    -26.650  0.0000E+00  0.2000E+01
    -26.518  0.0000E+00  0.2000E+01
    -26.386  0.0000E+00  0.2000E+01
    -26.254  0.0000E+00  0.2000E+01
    -26.122  0.0000E+00  0.2000E+01
    -25.989  0.0000E+00  0.2000E+01
    -25.857  0.0000E+00  0.2000E+01
    -25.725  0.0000E+00  0.2000E+01
    -25.593  0.0000E+00  0.2000E+01
    -25.461  0.0000E+00  0.2000E+01
    -25.329  0.0000E+00  0.2000E+01
    -25.197  0.0000E+00  0.2000E+01
    -25.065  0.0000E+00  0.2000E+01
    -24.932  0.0000E+00  0.2000E+01
    -24.800  0.0000E+00  0.2000E+01
    -24.668  0.0000E+00  0.2000E+01
    -24.536  0.0000E+00  0.2000E+01
    -24.404  0.0000E+00  0.2000E+01
    -24.272  0.0000E+00  0.2000E+01
    -24.140  0.0000E+00  0.2000E+01
    -24.008  0.0000E+00  0.2000E+01
    -23.876  0.0000E+00  0.2000E+01
    -23.743  0.0000E+00  0.2000E+01
    -23.611  0.0000E+00  0.2000E+01
    -23.479  0.0000E+00  0.2000E+01
    -23.347  0.0000E+00  0.2000E+01
    -23.215  0.0000E+00  0.2000E+01
    -23.083  0.0000E+00  0.2000E+01
    -22.951  0.0000E+00  0.2000E+01
    -22.819  0.0000E+00  0.2000E+01
    -22.686  0.0000E+00  0.2000E+01
    -22.554  0.1120E-14  0.2000E+01
    -22.422  0.1751E-04  0.2000E+01
    -22.290  0.5302E+00  0.2070E+01
    -22.158  0.9414E+01  0.3314E+01
    -22.026  0.6038E+01  0.4111E+01
    -21.894  0.5070E+01  0.4781E+01
    -21.762  0.1051E+02  0.6170E+01
    -21.630  0.8676E+01  0.7316E+01
    -21.497  0.4946E+01  0.7969E+01
    -21.365  0.1430E+02  0.9859E+01
    -21.233  0.1257E+01  0.1002E+02
    -21.101  0.6538E+01  0.1089E+02
    -20.969  0.1005E+02  0.1222E+02
    -20.837  0.1396E+02  0.1406E+02
    -20.705  0.8840E+01  0.1523E+02
    -20.573  0.2473E+01  0.1556E+02
    -20.440  0.3786E+01  0.1606E+02
    -20.308  0.1245E+02  0.1770E+02
    -20.176  0.7189E+01  0.1865E+02
    -20.044  0.1356E+02  0.2044E+02
    -19.912  0.6948E+00  0.2053E+02
    -19.780  0.8922E+01  0.2171E+02
    -19.648  0.1344E+02  0.2349E+02
    -19.516  0.7711E+01  0.2451E+02
    -19.384  0.1765E+01  0.2474E+02
    -19.251  0.1369E+02  0.2655E+02
    -19.119  0.8216E+01  0.2763E+02
    -18.987  0.9388E+01  0.2887E+02
    -18.855  0.4137E+01  0.2942E+02
    -18.723  0.3192E+01  0.2984E+02
    -18.591  0.1293E+02  0.3155E+02
    -18.459  0.1062E+02  0.3295E+02
    -18.327  0.1214E+02  0.3456E+02
    -18.194  0.2750E+01  0.3492E+02
    -18.062  0.1521E+02  0.3693E+02
    -17.930  0.6659E+01  0.3781E+02
    -17.798  0.5082E+01  0.3848E+02
    -17.666  0.1730E+01  0.3871E+02
    -17.534  0.1434E+02  0.4061E+02
    -17.402  0.8870E+01  0.4178E+02
    -17.270  0.1575E+02  0.4386E+02
    -17.138  0.1131E+02  0.4535E+02
    -17.005  0.5944E+01  0.4614E+02
    -16.873  0.3613E+01  0.4662E+02
    -16.741  0.7284E+01  0.4758E+02
    -16.609  0.9508E+01  0.4883E+02
    -16.477  0.6265E+01  0.4966E+02
    -16.345  0.6143E+01  0.5047E+02
    -16.213  0.5027E+01  0.5114E+02
    -16.081  0.8604E+01  0.5227E+02
    -15.948  0.1315E+02  0.5401E+02
    -15.816  0.1182E+02  0.5557E+02
    -15.684  0.3467E+01  0.5603E+02
    -15.552  0.3373E+01  0.5648E+02
    -15.420  0.4721E+01  0.5710E+02
    -15.288  0.6340E+01  0.5794E+02
    -15.156  0.1649E+02  0.6012E+02
    -15.024  0.1305E+02  0.6184E+02
    -14.892  0.7126E+01  0.6278E+02
    -14.759  0.1335E+02  0.6455E+02
    -14.627  0.7562E+01  0.6555E+02
    -14.495  0.6123E+01  0.6636E+02
    -14.363  0.1576E+02  0.6844E+02
    -14.231  0.9478E-01  0.6845E+02
    -14.099  0.4563E+01  0.6905E+02
    -13.967  0.3674E+01  0.6954E+02
    -13.835  0.1538E+02  0.7157E+02
    -13.702  0.2349E+02  0.7467E+02
    -13.570  0.3351E+01  0.7512E+02
    -13.438  0.3143E+01  0.7553E+02
    -13.306  0.1796E+00  0.7556E+02
    -13.174  0.7099E+01  0.7649E+02
    -13.042  0.1472E+02  0.7844E+02
    -12.910  0.1731E+02  0.8073E+02
    -12.778  0.7959E+01  0.8178E+02
    -12.645  0.5678E+00  0.8185E+02
    -12.513  0.1861E+02  0.8431E+02
    -12.381  0.1028E+02  0.8567E+02
    -12.249  0.6022E+01  0.8647E+02
    -12.117  0.1978E+01  0.8673E+02
    -11.985  0.1322E+02  0.8847E+02
    -11.853  0.2279E+01  0.8878E+02
    -11.721  0.1165E+02  0.9031E+02
    -11.589  0.2036E+02  0.9300E+02
    -11.456  0.1374E+02  0.9482E+02
    -11.324  0.7864E+01  0.9586E+02
    -11.192  0.8085E+01  0.9693E+02
    -11.060  0.9483E+01  0.9818E+02
    -10.928  0.6460E+01  0.9903E+02
    -10.796  0.2160E+02  0.1019E+03
    -10.664  0.2676E+01  0.1022E+03
    -10.532  0.1659E+02  0.1044E+03
    -10.399  0.8391E+01  0.1055E+03
    -10.267  0.1535E+02  0.1076E+03
    -10.135  0.3026E+02  0.1116E+03
    -10.003  0.2158E+02  0.1144E+03
     -9.871  0.8539E+01  0.1155E+03
     -9.739  0.2146E+02  0.1184E+03
     -9.607  0.2144E+02  0.1212E+03
     -9.475  0.2774E+02  0.1249E+03
     -9.343  0.2111E+02  0.1277E+03
     -9.210  0.2652E+02  0.1312E+03
     -9.078  0.2556E+02  0.1345E+03
     -8.946  0.2206E+02  0.1375E+03
     -8.814  0.2332E+02  0.1405E+03
     -8.682  0.1509E+02  0.1425E+03
     -8.550  0.2306E+02  0.1456E+03
     -8.418  0.1489E+02  0.1476E+03
     -8.286  0.1593E+02  0.1497E+03
     -8.153  0.1304E+02  0.1514E+03
     -8.021  0.3008E+02  0.1554E+03
     -7.889  0.1758E+02  0.1577E+03
     -7.757  0.1993E+02  0.1603E+03
     -7.625  0.5529E+01  0.1610E+03
     -7.493  0.5602E+01  0.1618E+03
     -7.361  0.7593E+01  0.1628E+03
     -7.229  0.3491E+02  0.1674E+03
     -7.097  0.2227E+02  0.1703E+03
     -6.964  0.2039E+01  0.1706E+03
     -6.832  0.2081E+02  0.1734E+03
     -6.700  0.9749E+01  0.1746E+03
     -6.568  0.1704E+02  0.1769E+03
     -6.436  0.9202E+01  0.1781E+03
     -6.304  0.1066E+02  0.1795E+03
     -6.172  0.1523E+02  0.1815E+03
     -6.040  0.1501E+02  0.1835E+03
     -5.907  0.1599E+02  0.1856E+03
     -5.775  0.1083E+02  0.1871E+03
     -5.643  0.1269E+02  0.1887E+03
     -5.511  0.6328E+01  0.1896E+03
     -5.379  0.6720E+01  0.1905E+03
     -5.247  0.9976E+01  0.1918E+03
     -5.115  0.8030E+01  0.1928E+03
     -4.983  0.1638E+02  0.1950E+03
     -4.851  0.2082E+02  0.1978E+03
     -4.718  0.2955E+01  0.1981E+03
     -4.586  0.6100E+00  0.1982E+03
     -4.454  0.8025E-05  0.1982E+03
     -4.322  0.1016E+01  0.1984E+03
     -4.190  0.1619E+02  0.2005E+03
     -4.058  0.8007E+01  0.2016E+03
     -3.926  0.1492E-01  0.2016E+03
     -3.794  0.7359E-01  0.2016E+03
     -3.661  0.3147E+01  0.2020E+03
     -3.529  0.2505E+00  0.2020E+03
     -3.397  0.3495E+01  0.2025E+03
     -3.265  0.1177E+02  0.2040E+03
     -3.133  0.9793E+01  0.2053E+03
     -3.001  0.5126E+01  0.2060E+03
     -2.869  0.1995E+01  0.2063E+03
     -2.737  0.9536E+01  0.2075E+03
     -2.604  0.2242E+00  0.2076E+03
     -2.472  0.2932E-01  0.2076E+03
     -2.340  0.3044E+01  0.2080E+03
     -2.208  0.2655E+01  0.2083E+03
     -2.076  0.9997E+00  0.2084E+03
     -1.944  0.3297E-04  0.2084E+03
     -1.812  0.2583E-08  0.2084E+03
     -1.680  0.6657E-01  0.2085E+03
     -1.548  0.9008E+01  0.2096E+03
     -1.415  0.1160E+02  0.2112E+03
     -1.283  0.4551E+01  0.2118E+03
     -1.151  0.3352E-03  0.2118E+03
     -1.019  0.8200E+00  0.2119E+03
     -0.887  0.9307E+01  0.2131E+03
     -0.755  0.2406E+02  0.2163E+03
     -0.623  0.1862E+02  0.2188E+03
     -0.491  0.5672E+01  0.2195E+03
     -0.358  0.4062E+00  0.2196E+03
     -0.226  0.4082E+01  0.2201E+03
     -0.094  0.1131E+02  0.2216E+03
      0.038  0.1056E+02  0.2230E+03
      0.170  0.1027E+01  0.2231E+03
      0.302  0.1521E+02  0.2251E+03
      0.434  0.8209E+01  0.2262E+03
      0.566  0.3337E+01  0.2267E+03
      0.698  0.1003E+02  0.2280E+03
      0.831  0.1782E+02  0.2303E+03
      0.963  0.6136E+01  0.2311E+03
      1.095  0.1039E+02  0.2325E+03
      1.227  0.1561E+02  0.2346E+03
      1.359  0.7926E+01  0.2356E+03
      1.491  0.1484E+02  0.2376E+03
      1.623  0.2308E+02  0.2406E+03
      1.755  0.1565E+02  0.2427E+03
      1.888  0.2737E+02  0.2463E+03
      2.020  0.8494E+01  0.2474E+03
      2.152  0.1556E+02  0.2495E+03
      2.284  0.2609E+02  0.2529E+03
      2.416  0.2945E+02  0.2568E+03
      2.548  0.7270E+01  0.2578E+03
      2.680  0.6304E+01  0.2586E+03
      2.812  0.8811E+01  0.2598E+03
      2.944  0.5218E+01  0.2605E+03
      3.077  0.9211E+01  0.2617E+03
      3.209  0.2893E+01  0.2621E+03
      3.341  0.4391E+01  0.2627E+03
      3.473  0.2273E-01  0.2627E+03
      3.605  0.3490E+01  0.2631E+03
      3.737  0.3236E+01  0.2636E+03
      3.869  0.7913E-03  0.2636E+03
      4.001  0.5843E-06  0.2636E+03
      4.134  0.2930E+00  0.2636E+03
      4.266  0.3042E+01  0.2640E+03
      4.398  0.2928E-01  0.2640E+03
      4.530  0.1625E-08  0.2640E+03
      4.662  0.0000E+00  0.2640E+03
      4.794  0.0000E+00  0.2640E+03
      4.926  0.0000E+00  0.2640E+03
      5.058  0.0000E+00  0.2640E+03
      5.190  0.0000E+00  0.2640E+03
      5.323  0.0000E+00  0.2640E+03
      5.455  0.0000E+00  0.2640E+03
      5.587  0.0000E+00  0.2640E+03
      5.719  0.0000E+00  0.2640E+03
      5.851  0.0000E+00  0.2640E+03
      5.983  0.0000E+00  0.2640E+03
