       N       E                     dE             d eps       ncg     rms          rms(c)
DAV:   1     0.139515063341E+04    0.13952E+04   -0.73625E+04  1360   0.104E+03
DAV:   2    -0.291855666256E+03   -0.16870E+04   -0.16373E+04  1720   0.286E+02
DAV:   3    -0.514195340941E+03   -0.22234E+03   -0.22090E+03  1448   0.109E+02
DAV:   4    -0.521304913449E+03   -0.71096E+01   -0.70796E+01  1544   0.237E+01
DAV:   5    -0.521539520734E+03   -0.23461E+00   -0.23434E+00  1720   0.358E+00    0.283E+01
RMM:   6    -0.496085167452E+03    0.25454E+02   -0.29918E+01  1304   0.120E+01    0.157E+01
RMM:   7    -0.489258899703E+03    0.68263E+01   -0.17601E+01  1323   0.902E+00    0.797E+00
RMM:   8    -0.486706270680E+03    0.25526E+01   -0.67491E+00  1329   0.569E+00    0.379E+00
RMM:   9    -0.486344244516E+03    0.36203E+00   -0.12562E+00  1444   0.216E+00    0.188E+00
RMM:  10    -0.486210183716E+03    0.13406E+00   -0.94494E-02  1368   0.779E-01    0.820E-01
RMM:  11    -0.486180105900E+03    0.30078E-01   -0.26614E-02  1407   0.324E-01    0.342E-01
RMM:  12    -0.486175246649E+03    0.48593E-02   -0.21112E-02  1379   0.255E-01    0.452E-01
RMM:  13    -0.486189943912E+03   -0.14697E-01   -0.15495E-02  1317   0.222E-01    0.178E-01
RMM:  14    -0.486202583002E+03   -0.12639E-01   -0.41538E-03  1353   0.106E-01    0.101E-01
RMM:  15    -0.486220504885E+03   -0.17922E-01   -0.35578E-03  1333   0.962E-02    0.171E-01
RMM:  16    -0.486222810693E+03   -0.23058E-02   -0.75369E-04  1380   0.510E-02    0.852E-02
RMM:  17    -0.486223900596E+03   -0.10899E-02   -0.15819E-04  1373   0.224E-02    0.145E-02
RMM:  18    -0.486224045481E+03   -0.14489E-03   -0.19959E-05  1419   0.879E-03    0.252E-02
RMM:  19    -0.486224089339E+03   -0.43858E-04   -0.79100E-06  1198   0.521E-03    0.767E-03
RMM:  20    -0.486224098559E+03   -0.92193E-05   -0.59045E-07   885   0.193E-03    0.714E-03
RMM:  21    -0.486224101414E+03   -0.28554E-05   -0.20146E-07   653   0.106E-03    0.683E-03
RMM:  22    -0.486224102250E+03   -0.83591E-06   -0.49129E-08   449   0.756E-04
   1 F= -.48622410E+03 E0= -.48621242E+03  d E =-.233651E-01
