  51  51   0   0
  0.5138078E+02  0.1230000E-08  0.1230000E-08  0.2000000E-08  0.5000000E-15
  1.000000000000000E-004
  CAR 
                                         
      5.97176603    -33.53829812  301     -3.01676243      1.00000000
    -33.538  0.0000E+00  0.0000E+00
    -33.407  0.0000E+00  0.0000E+00
    -33.275  0.0000E+00  0.0000E+00
    -33.143  0.0000E+00  0.0000E+00
    -33.011  0.0000E+00  0.0000E+00
    -32.880  0.0000E+00  0.0000E+00
    -32.748  0.0000E+00  0.0000E+00
    -32.616  0.0000E+00  0.0000E+00
    -32.485  0.0000E+00  0.0000E+00
    -32.353  0.0000E+00  0.0000E+00
    -32.221  0.0000E+00  0.0000E+00
    -32.090  0.0000E+00  0.0000E+00
    -31.958  0.8214E-08  0.1082E-08
    -31.826  0.1344E+00  0.1770E-01
    -31.694  0.1372E+02  0.1824E+01
    -31.563  0.1336E+01  0.2000E+01
    -31.431  0.2892E-05  0.2000E+01
    -31.299  0.0000E+00  0.2000E+01
    -31.168  0.0000E+00  0.2000E+01
    -31.036  0.0000E+00  0.2000E+01
    -30.904  0.0000E+00  0.2000E+01
    -30.773  0.0000E+00  0.2000E+01
    -30.641  0.0000E+00  0.2000E+01
    -30.509  0.0000E+00  0.2000E+01
    -30.377  0.0000E+00  0.2000E+01
    -30.246  0.0000E+00  0.2000E+01
    -30.114  0.0000E+00  0.2000E+01
    -29.982  0.0000E+00  0.2000E+01
    -29.851  0.0000E+00  0.2000E+01
    -29.719  0.0000E+00  0.2000E+01
    -29.587  0.0000E+00  0.2000E+01
    -29.456  0.0000E+00  0.2000E+01
    -29.324  0.0000E+00  0.2000E+01
    -29.192  0.0000E+00  0.2000E+01
    -29.060  0.0000E+00  0.2000E+01
    -28.929  0.0000E+00  0.2000E+01
    -28.797  0.0000E+00  0.2000E+01
    -28.665  0.0000E+00  0.2000E+01
    -28.534  0.0000E+00  0.2000E+01
    -28.402  0.0000E+00  0.2000E+01
    -28.270  0.0000E+00  0.2000E+01
    -28.139  0.0000E+00  0.2000E+01
    -28.007  0.0000E+00  0.2000E+01
    -27.875  0.0000E+00  0.2000E+01
    -27.743  0.0000E+00  0.2000E+01
    -27.612  0.0000E+00  0.2000E+01
    -27.480  0.0000E+00  0.2000E+01
    -27.348  0.0000E+00  0.2000E+01
    -27.217  0.0000E+00  0.2000E+01
    -27.085  0.0000E+00  0.2000E+01
    -26.953  0.0000E+00  0.2000E+01
    -26.822  0.0000E+00  0.2000E+01
    -26.690  0.0000E+00  0.2000E+01
    -26.558  0.0000E+00  0.2000E+01
    -26.426  0.0000E+00  0.2000E+01
    -26.295  0.0000E+00  0.2000E+01
    -26.163  0.0000E+00  0.2000E+01
    -26.031  0.0000E+00  0.2000E+01
    -25.900  0.0000E+00  0.2000E+01
    -25.768  0.0000E+00  0.2000E+01
    -25.636  0.0000E+00  0.2000E+01
    -25.505  0.0000E+00  0.2000E+01
    -25.373  0.0000E+00  0.2000E+01
    -25.241  0.0000E+00  0.2000E+01
    -25.109  0.0000E+00  0.2000E+01
    -24.978  0.0000E+00  0.2000E+01
    -24.846  0.0000E+00  0.2000E+01
    -24.714  0.0000E+00  0.2000E+01
    -24.583  0.0000E+00  0.2000E+01
    -24.451  0.0000E+00  0.2000E+01
    -24.319  0.0000E+00  0.2000E+01
    -24.188  0.0000E+00  0.2000E+01
    -24.056  0.0000E+00  0.2000E+01
    -23.924  0.0000E+00  0.2000E+01
    -23.792  0.0000E+00  0.2000E+01
    -23.661  0.0000E+00  0.2000E+01
    -23.529  0.0000E+00  0.2000E+01
    -23.397  0.0000E+00  0.2000E+01
    -23.266  0.0000E+00  0.2000E+01
    -23.134  0.0000E+00  0.2000E+01
    -23.002  0.0000E+00  0.2000E+01
    -22.871  0.0000E+00  0.2000E+01
    -22.739  0.0000E+00  0.2000E+01
    -22.607  0.0000E+00  0.2000E+01
    -22.475  0.6354E-08  0.2000E+01
    -22.344  0.3382E-01  0.2004E+01
    -22.212  0.4185E+01  0.2556E+01
    -22.080  0.9351E+01  0.3787E+01
    -21.949  0.4952E+01  0.4439E+01
    -21.817  0.1060E+02  0.5835E+01
    -21.685  0.5478E+01  0.6557E+01
    -21.554  0.7869E+01  0.7593E+01
    -21.422  0.1245E+02  0.9233E+01
    -21.290  0.5816E+01  0.9999E+01
    -21.158  0.3580E+01  0.1047E+02
    -21.027  0.9110E+01  0.1167E+02
    -20.895  0.1062E+02  0.1307E+02
    -20.763  0.1025E+02  0.1442E+02
    -20.632  0.8587E+01  0.1555E+02
    -20.500  0.1743E+00  0.1557E+02
    -20.368  0.1293E+02  0.1728E+02
    -20.237  0.4124E+01  0.1782E+02
    -20.105  0.1847E+02  0.2025E+02
    -19.973  0.1463E+01  0.2045E+02
    -19.841  0.3361E+01  0.2089E+02
    -19.710  0.1367E+02  0.2269E+02
    -19.578  0.8761E+01  0.2384E+02
    -19.446  0.6243E+01  0.2467E+02
    -19.315  0.6548E+01  0.2553E+02
    -19.183  0.1423E+02  0.2740E+02
    -19.051  0.7370E+01  0.2837E+02
    -18.920  0.4903E+01  0.2902E+02
    -18.788  0.5254E+01  0.2971E+02
    -18.656  0.5109E+01  0.3038E+02
    -18.524  0.1398E+02  0.3222E+02
    -18.393  0.1124E+02  0.3371E+02
    -18.261  0.8908E+01  0.3488E+02
    -18.129  0.4522E+01  0.3547E+02
    -17.998  0.1556E+02  0.3752E+02
    -17.866  0.4765E+01  0.3815E+02
    -17.734  0.3830E+01  0.3866E+02
    -17.603  0.5516E+01  0.3938E+02
    -17.471  0.1601E+02  0.4149E+02
    -17.339  0.4004E+01  0.4202E+02
    -17.207  0.2151E+02  0.4485E+02
    -17.076  0.6861E+01  0.4575E+02
    -16.944  0.3558E+01  0.4622E+02
    -16.812  0.8777E+01  0.4738E+02
    -16.681  0.4055E+01  0.4791E+02
    -16.549  0.8979E+01  0.4910E+02
    -16.417  0.8802E+01  0.5025E+02
    -16.286  0.3158E+01  0.5067E+02
    -16.154  0.9228E+01  0.5189E+02
    -16.022  0.5728E+01  0.5264E+02
    -15.890  0.1310E+02  0.5436E+02
    -15.759  0.1207E+02  0.5595E+02
    -15.627  0.2199E+01  0.5624E+02
    -15.495  0.4150E+01  0.5679E+02
    -15.364  0.2779E+01  0.5716E+02
    -15.232  0.1008E+02  0.5849E+02
    -15.100  0.2198E+02  0.6138E+02
    -14.969  0.4746E+01  0.6200E+02
    -14.837  0.1148E+02  0.6352E+02
    -14.705  0.1055E+02  0.6491E+02
    -14.573  0.6411E+01  0.6575E+02
    -14.442  0.1543E+02  0.6778E+02
    -14.310  0.5027E+01  0.6844E+02
    -14.178  0.9684E+00  0.6857E+02
    -14.047  0.4125E+01  0.6912E+02
    -13.915  0.9821E+01  0.7041E+02
    -13.783  0.1617E+02  0.7254E+02
    -13.652  0.1859E+02  0.7499E+02
    -13.520  0.1758E+01  0.7522E+02
    -13.388  0.2556E+01  0.7555E+02
    -13.256  0.4350E+00  0.7561E+02
    -13.125  0.1103E+02  0.7706E+02
    -12.993  0.1379E+02  0.7888E+02
    -12.861  0.2065E+02  0.8160E+02
    -12.730  0.1347E+01  0.8178E+02
    -12.598  0.4566E+01  0.8238E+02
    -12.466  0.1775E+02  0.8472E+02
    -12.335  0.1089E+02  0.8615E+02
    -12.203  0.3673E+01  0.8663E+02
    -12.071  0.2966E+01  0.8702E+02
    -11.939  0.1235E+02  0.8865E+02
    -11.808  0.3441E+01  0.8910E+02
    -11.676  0.1565E+02  0.9117E+02
    -11.544  0.1812E+02  0.9355E+02
    -11.413  0.1354E+02  0.9534E+02
    -11.281  0.8438E+01  0.9645E+02
    -11.149  0.5575E+01  0.9718E+02
    -11.018  0.7926E+01  0.9823E+02
    -10.886  0.1274E+02  0.9990E+02
    -10.754  0.1712E+02  0.1022E+03
    -10.622  0.2063E+01  0.1024E+03
    -10.491  0.2028E+02  0.1051E+03
    -10.359  0.4102E+01  0.1056E+03
    -10.227  0.2427E+02  0.1088E+03
    -10.096  0.2557E+02  0.1122E+03
     -9.964  0.1856E+02  0.1146E+03
     -9.832  0.1437E+02  0.1165E+03
     -9.701  0.1764E+02  0.1189E+03
     -9.569  0.2737E+02  0.1225E+03
     -9.437  0.2139E+02  0.1253E+03
     -9.305  0.2696E+02  0.1288E+03
     -9.174  0.2339E+02  0.1319E+03
     -9.042  0.2866E+02  0.1357E+03
     -8.910  0.2038E+02  0.1384E+03
     -8.779  0.1765E+02  0.1407E+03
     -8.647  0.2318E+02  0.1438E+03
     -8.515  0.1744E+02  0.1460E+03
     -8.384  0.1677E+02  0.1483E+03
     -8.252  0.1487E+02  0.1502E+03
     -8.120  0.1603E+02  0.1523E+03
     -7.988  0.2868E+02  0.1561E+03
     -7.857  0.1623E+02  0.1582E+03
     -7.725  0.1658E+02  0.1604E+03
     -7.593  0.7980E+01  0.1615E+03
     -7.462  0.2310E+01  0.1618E+03
     -7.330  0.1722E+02  0.1640E+03
     -7.198  0.3256E+02  0.1683E+03
     -7.067  0.1582E+02  0.1704E+03
     -6.935  0.4228E+01  0.1710E+03
     -6.803  0.1944E+02  0.1735E+03
     -6.671  0.1248E+02  0.1752E+03
     -6.540  0.1613E+02  0.1773E+03
     -6.408  0.7199E+01  0.1783E+03
     -6.276  0.1239E+02  0.1799E+03
     -6.145  0.1543E+02  0.1819E+03
     -6.013  0.1375E+02  0.1837E+03
     -5.881  0.1999E+02  0.1864E+03
     -5.750  0.7884E+01  0.1874E+03
     -5.618  0.1369E+02  0.1892E+03
     -5.486  0.3431E+01  0.1897E+03
     -5.354  0.7719E+01  0.1907E+03
     -5.223  0.8738E+01  0.1918E+03
     -5.091  0.1183E+02  0.1934E+03
     -4.959  0.1802E+02  0.1958E+03
     -4.828  0.1547E+02  0.1978E+03
     -4.696  0.3197E+01  0.1982E+03
     -4.564  0.8411E-01  0.1982E+03
     -4.433  0.2944E-04  0.1982E+03
     -4.301  0.2801E+01  0.1986E+03
     -4.169  0.1741E+02  0.2009E+03
     -4.037  0.5100E+01  0.2016E+03
     -3.906  0.1010E-02  0.2016E+03
     -3.774  0.4379E+00  0.2016E+03
     -3.642  0.2921E+01  0.2020E+03
     -3.511  0.2300E+00  0.2020E+03
     -3.379  0.4285E+01  0.2026E+03
     -3.247  0.1231E+02  0.2042E+03
     -3.116  0.1074E+02  0.2056E+03
     -2.984  0.2869E+01  0.2060E+03
     -2.852  0.2447E+01  0.2063E+03
     -2.720  0.9220E+01  0.2075E+03
     -2.589  0.9904E-01  0.2076E+03
     -2.457  0.7535E-01  0.2076E+03
     -2.325  0.3162E+01  0.2080E+03
     -2.194  0.2884E+01  0.2084E+03
     -2.062  0.6280E+00  0.2084E+03
     -1.930  0.6555E-05  0.2084E+03
     -1.799  0.2363E-07  0.2084E+03
     -1.667  0.1639E+00  0.2085E+03
     -1.535  0.9471E+01  0.2097E+03
     -1.403  0.1255E+02  0.2114E+03
     -1.272  0.3123E+01  0.2118E+03
     -1.140  0.1190E-03  0.2118E+03
     -1.008  0.1049E+01  0.2119E+03
     -0.877  0.1068E+02  0.2133E+03
     -0.745  0.2336E+02  0.2164E+03
     -0.613  0.1833E+02  0.2188E+03
     -0.482  0.5389E+01  0.2195E+03
     -0.350  0.2806E+00  0.2196E+03
     -0.218  0.4524E+01  0.2202E+03
     -0.086  0.1125E+02  0.2216E+03
      0.045  0.1043E+02  0.2230E+03
      0.177  0.8878E+00  0.2231E+03
      0.309  0.1604E+02  0.2252E+03
      0.440  0.7647E+01  0.2262E+03
      0.572  0.3323E+01  0.2267E+03
      0.704  0.1081E+02  0.2281E+03
      0.835  0.1715E+02  0.2304E+03
      0.967  0.6126E+01  0.2312E+03
      1.099  0.1094E+02  0.2326E+03
      1.231  0.1503E+02  0.2346E+03
      1.362  0.8202E+01  0.2357E+03
      1.494  0.1498E+02  0.2376E+03
      1.626  0.2302E+02  0.2407E+03
      1.757  0.1548E+02  0.2427E+03
      1.889  0.2755E+02  0.2463E+03
      2.021  0.8427E+01  0.2475E+03
      2.152  0.1604E+02  0.2496E+03
      2.284  0.2606E+02  0.2530E+03
      2.416  0.2888E+02  0.2568E+03
      2.548  0.7522E+01  0.2578E+03
      2.679  0.4908E+01  0.2584E+03
      2.811  0.1011E+02  0.2598E+03
      2.943  0.5343E+01  0.2605E+03
      3.074  0.9199E+01  0.2617E+03
      3.206  0.2769E+01  0.2621E+03
      3.338  0.4643E+01  0.2627E+03
      3.469  0.3169E-01  0.2627E+03
      3.601  0.3175E+01  0.2631E+03
      3.733  0.3572E+01  0.2636E+03
      3.865  0.1454E-02  0.2636E+03
      3.996  0.6382E-06  0.2636E+03
      4.128  0.2962E+00  0.2636E+03
      4.260  0.3048E+01  0.2640E+03
      4.391  0.2998E-01  0.2640E+03
      4.523  0.1840E-08  0.2640E+03
      4.655  0.0000E+00  0.2640E+03
      4.786  0.0000E+00  0.2640E+03
      4.918  0.0000E+00  0.2640E+03
      5.050  0.0000E+00  0.2640E+03
      5.182  0.0000E+00  0.2640E+03
      5.313  0.0000E+00  0.2640E+03
      5.445  0.0000E+00  0.2640E+03
      5.577  0.0000E+00  0.2640E+03
      5.708  0.0000E+00  0.2640E+03
      5.840  0.0000E+00  0.2640E+03
      5.972  0.0000E+00  0.2640E+03
