 running on   48 total cores
 distrk:  each k-point on   48 cores,    1 groups
 distr:  one band on    8 cores,    6 groups
 using from now: INCAR     
 vasp.5.4.4.18Apr17-6-g9f103f2a35 (build Aug 13 2022 23:40:43) complex          
  
 POSCAR found type information on POSCAR  C  O 
 POSCAR found :  2 types and      51 ions
 scaLAPACK will be used

 ----------------------------------------------------------------------------- 
|                                                                             |
|  ADVICE TO THIS USER RUNNING 'VASP/VAMP'   (HEAR YOUR MASTER'S VOICE ...):  |
|                                                                             |
|      You have a (more or less) 'large supercell' and for larger cells       |
|      it might be more efficient to use real space projection opertators     |
|      So try LREAL= Auto  in the INCAR   file.                               |
|      Mind:          For very  accurate calculation you might also keep the  |
|      reciprocal projection scheme          (i.e. LREAL=.FALSE.)             |
|                                                                             |
 ----------------------------------------------------------------------------- 

 LDA part: xc-table for Pade appr. of Perdew
 POSCAR found type information on POSCAR  C  O 
 POSCAR found :  2 types and      51 ions
 found WAVECAR, reading the header
  number of k-points has changed, file:     3 present:     5
  trying to continue reading WAVECAR, but it might fail
 POSCAR, INCAR and KPOINTS ok, starting setup
 FFT: planning ...
 reading WAVECAR
 the WAVECAR file was read successfully
 charge-density read from file: 1.00000000000000                        
 entering main loop
       N       E                     dE             d eps       ncg     rms          rms(c)
DAV:   1    -0.453292728455E+03   -0.45329E+03   -0.28416E+02  1344   0.216E+01    0.505E-01
RMM:   2    -0.454280455175E+03   -0.98773E+00   -0.99043E+00  1419   0.566E+00    0.217E-01
RMM:   3    -0.454332647262E+03   -0.52192E-01   -0.58574E-01  1581   0.110E+00    0.156E-01
RMM:   4    -0.454336503243E+03   -0.38560E-02   -0.40529E-02  1578   0.311E-01    0.155E-01
RMM:   5    -0.454336598263E+03   -0.95020E-04   -0.32134E-03  1509   0.917E-02    0.602E-02
RMM:   6    -0.454336626369E+03   -0.28106E-04   -0.51389E-04  1526   0.472E-02    0.183E-02
RMM:   7    -0.454336632534E+03   -0.61647E-05   -0.21326E-05  1029   0.108E-02
   1 F= -.45433663E+03 E0= -.45433658E+03  d E =-.114923E-03
