 vasp.5.4.4.18Apr17-6-g9f103f2a35 (build Aug 13 2022 23:40:43) complex          
  
 executed on             LinuxIFC date 2024.11.10  03:55:19
 running on   48 total cores
 distrk:  each k-point on   48 cores,    1 groups
 distr:  one band on NCORES_PER_BAND=   8 cores,    6 groups


--------------------------------------------------------------------------------------------------------


 INCAR:
 POTCAR:    PAW_PBE C 08Apr2002                   
 POTCAR:    PAW_PBE O 08Apr2002                   
 POTCAR:    PAW_PBE C 08Apr2002                   
   VRHFIN =C: s2p2                                                              
   LEXCH  = PE                                                                  
   EATOM  =   147.1560 eV,   10.8157 Ry                                         
                                                                                
   TITEL  = PAW_PBE C 08Apr2002                                                 
   LULTRA =        F    use ultrasoft PP ?                                      
   IUNSCR =        1    unscreen: 0-lin 1-nonlin 2-no                           
   RPACOR =    1.200    partial core radius                                     
   POMASS =   12.011; ZVAL   =    4.000    mass and valenz                      
   RCORE  =    1.500    outmost cutoff radius                                   
   RWIGS  =    1.630; RWIGS  =    0.863    wigner-seitz radius (au A)           
   ENMAX  =  400.000; ENMIN  =  300.000 eV                                      
   ICORE  =        2    local potential                                         
   LCOR   =        T    correct aug charges                                     
   LPAW   =        T    paw PP                                                  
   EAUG   =  644.873                                                            
   DEXC   =    0.000                                                            
   RMAX   =    1.529    core radius for proj-oper                               
   RAUG   =    1.300    factor for augmentation sphere                          
   RDEP   =    1.501    radius for radial grids                                 
   RDEPT  =    1.300    core radius for aug-charge                              
                                                                                
   Atomic configuration                                                         
    4 entries                                                                   
     n  l   j            E        occ.                                          
     1  0  0.50      -273.3789   2.0000                                         
     2  0  0.50       -13.7508   2.0000                                         
     2  1  0.50        -5.2854   2.0000                                         
     3  2  1.50        -5.4423   0.0000                                         
   Description                                                                  
     l       E           TYP  RCUT    TYP  RCUT                                 
     0    -13.7508458     23  1.200                                             
     0     -8.2022199     23  1.200                                             
     1     -5.2854383     23  1.500                                             
     1     34.0145650     23  1.500                                             
     2     -5.4423304      7  1.500                                             
  local pseudopotential read in
  partial core-charges read in
  partial kinetic energy density read in
  atomic valenz-charges read in
  non local Contribution for L=           0  read in
    real space projection operators read in
  non local Contribution for L=           0  read in
    real space projection operators read in
  non local Contribution for L=           1  read in
    real space projection operators read in
  non local Contribution for L=           1  read in
    real space projection operators read in
    PAW grid and wavefunctions read in
 
   number of l-projection  operators is LMAX  =           4
   number of lm-projection operators is LMMAX =           8
 
 POTCAR:    PAW_PBE O 08Apr2002                   
   VRHFIN =O: s2p4                                                              
   LEXCH  = PE                                                                  
   EATOM  =   432.3788 eV,   31.7789 Ry                                         
                                                                                
   TITEL  = PAW_PBE O 08Apr2002                                                 
   LULTRA =        F    use ultrasoft PP ?                                      
   IUNSCR =        1    unscreen: 0-lin 1-nonlin 2-no                           
   RPACOR =    1.200    partial core radius                                     
   POMASS =   16.000; ZVAL   =    6.000    mass and valenz                      
   RCORE  =    1.520    outmost cutoff radius                                   
   RWIGS  =    1.550; RWIGS  =    0.820    wigner-seitz radius (au A)           
   ENMAX  =  400.000; ENMIN  =  300.000 eV                                      
   ICORE  =        2    local potential                                         
   LCOR   =        T    correct aug charges                                     
   LPAW   =        T    paw PP                                                  
   EAUG   =  605.392                                                            
   DEXC   =    0.000                                                            
   RMAX   =    1.553    core radius for proj-oper                               
   RAUG   =    1.300    factor for augmentation sphere                          
   RDEP   =    1.550    radius for radial grids                                 
   RDEPT  =    1.329    core radius for aug-charge                              
                                                                                
   Atomic configuration                                                         
    4 entries                                                                   
     n  l   j            E        occ.                                          
     1  0  0.50      -514.6923   2.0000                                         
     2  0  0.50       -23.9615   2.0000                                         
     2  1  0.50        -9.0305   4.0000                                         
     3  2  1.50        -9.5241   0.0000                                         
   Description                                                                  
     l       E           TYP  RCUT    TYP  RCUT                                 
     0    -23.9615318     23  1.200                                             
     0     -9.5240782     23  1.200                                             
     1     -9.0304911     23  1.520                                             
     1      8.1634956     23  1.520                                             
     2     -9.5240782      7  1.500                                             
  local pseudopotential read in
  partial core-charges read in
  partial kinetic energy density read in
  kinetic energy density of atom read in
  atomic valenz-charges read in
  non local Contribution for L=           0  read in
    real space projection operators read in
  non local Contribution for L=           0  read in
    real space projection operators read in
  non local Contribution for L=           1  read in
    real space projection operators read in
  non local Contribution for L=           1  read in
    real space projection operators read in
    PAW grid and wavefunctions read in
 
   number of l-projection  operators is LMAX  =           4
   number of lm-projection operators is LMMAX =           8
 

 ----------------------------------------------------------------------------- 
|                                                                             |
|  ADVICE TO THIS USER RUNNING 'VASP/VAMP'   (HEAR YOUR MASTER'S VOICE ...):  |
|                                                                             |
|      You have a (more or less) 'large supercell' and for larger cells       |
|      it might be more efficient to use real space projection opertators     |
|      So try LREAL= Auto  in the INCAR   file.                               |
|      Mind:          For very  accurate calculation you might also keep the  |
|      reciprocal projection scheme          (i.e. LREAL=.FALSE.)             |
|                                                                             |
 ----------------------------------------------------------------------------- 

  PAW_PBE C 08Apr2002                   :
 energy of atom  1       EATOM= -147.1560
 kinetic energy error for atom=    0.0288 (will be added to EATOM!!)
  PAW_PBE O 08Apr2002                   :
 energy of atom  2       EATOM= -432.3788
 kinetic energy error for atom=    0.1156 (will be added to EATOM!!)
 
 
 POSCAR: generated by phonopy                    
  positions in direct lattice
  No initial velocities read in
 exchange correlation table for  LEXCH =        8
   RHO(1)=    0.500       N(1)  =     2000
   RHO(2)=  100.500       N(2)  =     4000

 VTST: version 3.2, (02/03/18)

 CHAIN: initializing optimizer
 
 OPT: Using VASP Dynamics algorithm
 CHAIN: Read ICHAIN            0
 
 POSCAR: generated by phonopy                    
  positions in direct lattice
  No initial velocities read in
 


--------------------------------------------------------------------------------------------------------


 ion  position               nearest neighbor table
   1  0.000  0.000  0.418-  26 1.42  30 1.42  46 1.42
   2  0.200  0.000  0.418-  27 1.42  26 1.42  47 1.42
   3  0.400  0.000  0.418-  28 1.42  27 1.42  48 1.42
   4  0.600  0.000  0.418-  29 1.42  28 1.42  49 1.42
   5  0.800  0.000  0.418-  30 1.42  29 1.42  50 1.42
   6  0.000  0.200  0.418-  31 1.42  35 1.42  26 1.42
   7  0.200  0.200  0.418-  32 1.42  31 1.42  27 1.42
   8  0.399  0.200  0.418-  32 1.41  28 1.42  33 1.43
   9  0.600  0.200  0.418-  34 1.42  33 1.42  29 1.42
  10  0.800  0.200  0.418-  35 1.42  34 1.42  30 1.42
  11  0.000  0.400  0.418-  36 1.42  40 1.42  31 1.42
  12  0.200  0.400  0.418-  37 1.42  36 1.42  32 1.42
  13  0.400  0.400  0.418-  51 1.00  38 1.42  37 1.42  33 1.42
  14  0.600  0.400  0.418-  39 1.42  38 1.42  34 1.42
  15  0.800  0.400  0.418-  40 1.42  39 1.42  35 1.42
  16  0.000  0.600  0.418-  41 1.42  45 1.42  36 1.42
  17  0.200  0.600  0.418-  42 1.42  41 1.42  37 1.42
  18  0.400  0.600  0.418-  43 1.42  42 1.42  38 1.42
  19  0.600  0.600  0.418-  44 1.42  43 1.42  39 1.42
  20  0.800  0.600  0.418-  45 1.42  44 1.42  40 1.42
  21  0.000  0.800  0.418-  46 1.42  50 1.42  41 1.42
  22  0.200  0.800  0.418-  47 1.42  46 1.42  42 1.42
  23  0.400  0.800  0.418-  48 1.42  47 1.42  43 1.42
  24  0.600  0.800  0.418-  49 1.42  48 1.42  44 1.42
  25  0.800  0.800  0.418-  50 1.42  49 1.42  45 1.42
  26  0.067  0.067  0.418-   1 1.42   2 1.42   6 1.42
  27  0.267  0.067  0.418-   2 1.42   3 1.42   7 1.42
  28  0.467  0.067  0.418-   3 1.42   4 1.42   8 1.42
  29  0.667  0.067  0.418-   4 1.42   5 1.42   9 1.42
  30  0.867  0.067  0.418-   5 1.42   1 1.42  10 1.42
  31  0.067  0.267  0.418-   6 1.42   7 1.42  11 1.42
  32  0.267  0.267  0.418-   8 1.41   7 1.42  12 1.42
  33  0.467  0.267  0.418-   9 1.42  13 1.42   8 1.43  51 1.74
  34  0.667  0.267  0.418-   9 1.42  10 1.42  14 1.42
  35  0.867  0.267  0.418-  10 1.42   6 1.42  15 1.42
  36  0.067  0.467  0.418-  11 1.42  12 1.42  16 1.42
  37  0.267  0.467  0.418-  12 1.42  13 1.42  17 1.42  51 1.74
  38  0.467  0.467  0.418-  13 1.42  14 1.42  18 1.42  51 1.74
  39  0.667  0.467  0.418-  14 1.42  15 1.42  19 1.42
  40  0.867  0.467  0.418-  15 1.42  11 1.42  20 1.42
  41  0.067  0.667  0.418-  16 1.42  17 1.42  21 1.42
  42  0.267  0.667  0.418-  17 1.42  18 1.42  22 1.42
  43  0.467  0.667  0.418-  18 1.42  19 1.42  23 1.42
  44  0.667  0.667  0.418-  19 1.42  20 1.42  24 1.42
  45  0.867  0.667  0.418-  20 1.42  16 1.42  25 1.42
  46  0.067  0.867  0.418-  21 1.42  22 1.42   1 1.42
  47  0.267  0.867  0.418-  22 1.42  23 1.42   2 1.42
  48  0.467  0.867  0.418-  23 1.42  24 1.42   3 1.42
  49  0.667  0.867  0.418-  24 1.42  25 1.42   4 1.42
  50  0.867  0.867  0.418-  25 1.42  21 1.42   5 1.42
  51  0.400  0.400  0.468-  13 1.00  38 1.74  37 1.74  33 1.74
 
  LATTYP: Found a hexagonal cell.
 ALAT       =    12.2999994816
 C/A-ratio  =     1.6260163287
  
  Lattice vectors:
  
 A1 = (   6.1499993860, -10.6521122225,   0.0000000000)
 A2 = ( -12.3000001905,   0.0000000000,   0.0000000000)
 A3 = (   0.0000000000,   0.0000000000, -20.0000000000)


Analysis of symmetry for initial positions (statically):
=====================================================================
 Subroutine PRICEL returns:
 Original cell was already a primitive cell.
 

 Routine SETGRP: Setting up the symmetry group for a 
 hexagonal supercell.


 Subroutine GETGRP returns: Found  1 space group operations
 (whereof  1 operations were pure point group operations)
 out of a pool of 24 trial point group operations.


The static configuration has the point symmetry C_1 .


Analysis of symmetry for dynamics (positions and initial velocities):
=====================================================================
 Subroutine PRICEL returns:
 Original cell was already a primitive cell.
 

 Routine SETGRP: Setting up the symmetry group for a 
 hexagonal supercell.


 Subroutine GETGRP returns: Found  1 space group operations
 (whereof  1 operations were pure point group operations)
 out of a pool of 24 trial point group operations.


The dynamic configuration has the point symmetry C_1 .


 Subroutine INISYM returns: Found  1 space group operations
 (whereof  1 operations are pure point group operations),
 and found     1 'primitive' translations

 
 
 KPOINTS: K-POINTS                                

Automatic generation of k-mesh.
Space group operators:
 irot       det(A)        alpha          n_x          n_y          n_z        tau_x        tau_y        tau_z
    1     1.000000     0.000000     1.000000     0.000000     0.000000     0.000000     0.000000     0.000000
 
 Subroutine IBZKPT returns following result:
 ===========================================
 
 Found      5 irreducible k-points:
 
 Following reciprocal coordinates:
            Coordinates               Weight
  0.000000  0.000000  0.000000      1.000000
  0.333333  0.000000  0.000000      2.000000
  0.000000  0.333333  0.000000      2.000000
  0.333333  0.333333  0.000000      2.000000
 -0.333333  0.333333  0.000000      2.000000
 
 Following cartesian coordinates:
            Coordinates               Weight
  0.000000  0.000000  0.000000      1.000000
  0.027100 -0.015646  0.000000      2.000000
  0.000000  0.031293  0.000000      2.000000
  0.027100  0.015646  0.000000      2.000000
 -0.027100  0.046939  0.000000      2.000000
 


--------------------------------------------------------------------------------------------------------




 Dimension of arrays:
   k-points           NKPTS =      5   k-points in BZ     NKDIM =      5   number of bands    NBANDS=    132
   number of dos      NEDOS =    301   number of ions     NIONS =     51
   non local maximal  LDIM  =      4   non local SUM 2l+1 LMDIM =      8
   total plane-waves  NPLWV = 896000
   max r-space proj   IRMAX =      1   max aug-charges    IRDMAX=  35685
   dimension x,y,z NGX =    80 NGY =   80 NGZ =  140
   dimension x,y,z NGXF=   160 NGYF=  160 NGZF=  280
   support grid    NGXF=   320 NGYF=  320 NGZF=  560
   ions per type =              50   1
   NGX,Y,Z   is equivalent  to a cutoff of  10.81, 10.81, 11.64 a.u.
   NGXF,Y,Z  is equivalent  to a cutoff of  21.63, 21.63, 23.27 a.u.

 SYSTEM =                                          
 POSCAR =  generated by phonopy                    

 Startparameter for this run:
   NWRITE =      2    write-flag & timer
   PREC   = accura    normal or accurate (medium, high low for compatibility)
   ISTART =      1    job   : 0-new  1-cont  2-samecut
   ICHARG =      1    charge: 1-file 2-atom 10-const
   ISPIN  =      1    spin polarized calculation?
   LNONCOLLINEAR =      F non collinear calculations
   LSORBIT =      F    spin-orbit coupling
   INIWAV =      1    electr: 0-lowe 1-rand  2-diag
   LASPH  =      F    aspherical Exc in radial PAW
   METAGGA=      F    non-selfconsistent MetaGGA calc.

 Electronic Relaxation 1
   ENCUT  =  400.0 eV  29.40 Ry    5.42 a.u.  20.06 20.06 32.61*2*pi/ulx,y,z
   ENINI  =  400.0     initial cutoff
   ENAUG  =  644.9 eV  augmentation charge cutoff
   NELM   =    300;   NELMIN=  2; NELMDL=  0     # of ELM steps 
   EDIFF  = 0.1E-04   stopping-criterion for ELM
   LREAL  =      F    real-space projection
   NLSPLINE    = F    spline interpolate recip. space projectors
   LCOMPAT=      F    compatible to vasp.4.4
   GGA_COMPAT  = T    GGA compatible to vasp.4.4-vasp.4.6
   LMAXPAW     = -100 max onsite density
   LMAXMIX     =    2 max onsite mixed and CHGCAR
   VOSKOWN=      0    Vosko Wilk Nusair interpolation
   ROPT   =    0.00000   0.00000
 Ionic relaxation
   EDIFFG = -.1E-02   stopping-criterion for IOM
   NSW    =      1    number of steps for IOM
   NBLOCK =      1;   KBLOCK =      1    inner block; outer block 
   IBRION =     -1    ionic relax: 0-MD 1-quasi-New 2-CG
   NFREE  =      0    steps in history (QN), initial steepest desc. (CG)
   ISIF   =      2    stress and relaxation
   IWAVPR =     10    prediction:  0-non 1-charg 2-wave 3-comb
   ISYM   =      2    0-nonsym 1-usesym 2-fastsym
   LCORR  =      T    Harris-Foulkes like correction to forces

   POTIM  = 0.5000    time-step for ionic-motion
   TEIN   =    0.0    initial temperature
   TEBEG  =    0.0;   TEEND  =   0.0 temperature during run
   SMASS  =  -3.00    Nose mass-parameter (am)
   estimated Nose-frequenzy (Omega)   =  0.10E-29 period in steps =****** mass=  -0.346E-26a.u.
   SCALEE = 1.0000    scale energy and forces
   NPACO  =    256;   APACO  = 16.0  distance and # of slots for P.C.
   PSTRESS=    0.0 pullay stress

  Mass of Ions in am
   POMASS =  12.01 16.00
  Ionic Valenz
   ZVAL   =   4.00  6.00
  Atomic Wigner-Seitz radii
   RWIGS  =  -1.00 -1.00
  virtual crystal weights 
   VCA    =   1.00  1.00
   NELECT =     206.0000    total number of electrons
   NUPDOWN=      -1.0000    fix difference up-down

 DOS related values:
   EMIN   =  10.00;   EMAX   =-10.00  energy-range for DOS
   EFERMI =   0.00
   ISMEAR =     0;   SIGMA  =   0.05  broadening in eV -4-tet -1-fermi 0-gaus

 Electronic relaxation 2 (details)
   IALGO  =     68    algorithm
   LDIAG  =      T    sub-space diagonalisation (order eigenvalues)
   LSUBROT=      F    optimize rotation matrix (better conditioning)
   TURBO    =      0    0=normal 1=particle mesh
   IRESTART =      0    0=no restart 2=restart with 2 vectors
   NREBOOT  =      0    no. of reboots
   NMIN     =      0    reboot dimension
   EREF     =   0.00    reference energy to select bands
   IMIX   =      4    mixing-type and parameters
     AMIX     =   0.40;   BMIX     =  1.00
     AMIX_MAG =   1.60;   BMIX_MAG =  1.00
     AMIN     =   0.10
     WC   =   100.;   INIMIX=   1;  MIXPRE=   1;  MAXMIX= -45

 Intra band minimization:
   WEIMIN = 0.0000     energy-eigenvalue tresh-hold
   EBREAK =  0.19E-07  absolut break condition
   DEPER  =   0.30     relativ break condition  

   TIME   =   0.40     timestep for ELM

  volume/ion in A,a.u.               =      51.38       346.73
  Fermi-wavevector in a.u.,A,eV,Ry     =   0.701305  1.325274  6.691736  0.491829
  Thomas-Fermi vector in A             =   1.785695
 
 Write flags
   LWAVE        =      F    write WAVECAR
   LDOWNSAMPLE  =      F    k-point downsampling of WAVECAR
   LCHARG       =      F    write CHGCAR
   LVTOT        =      F    write LOCPOT, total local potential
   LVHAR        =      F    write LOCPOT, Hartree potential only
   LELF         =      F    write electronic localiz. function (ELF)
   LORBIT       =      0    0 simple, 1 ext, 2 COOP (PROOUT), +10 PAW based schemes


 Dipole corrections
   LMONO  =      F    monopole corrections only (constant potential shift)
   LDIPOL =      F    correct potential (dipole corrections)
   IDIPOL =      0    1-x, 2-y, 3-z, 4-all directions 
   EPSILON=  1.0000000 bulk dielectric constant

 Exchange correlation treatment:
   GGA     =    --    GGA type
   LEXCH   =     8    internal setting for exchange type
   VOSKOWN=      0    Vosko Wilk Nusair interpolation
   LHFCALC =     F    Hartree Fock is set to
   LHFONE  =     F    Hartree Fock one center treatment
   AEXX    =    0.0000 exact exchange contribution

 Linear response parameters
   LEPSILON=     F    determine dielectric tensor
   LRPA    =     F    only Hartree local field effects (RPA)
   LNABLA  =     F    use nabla operator in PAW spheres
   LVEL    =     F    velocity operator in full k-point grid
   LINTERFAST=   F  fast interpolation
   KINTER  =     0    interpolate to denser k-point grid
   CSHIFT  =0.1000    complex shift for real part using Kramers Kronig
   OMEGAMAX=  -1.0    maximum frequency
   DEG_THRESHOLD= 0.2000000E-02 threshold for treating states as degnerate
   RTIME   =   -0.100 relaxation time in fs
  (WPLASMAI=    0.000 imaginary part of plasma frequency in eV, 0.658/RTIME)
   DFIELD  = 0.0000000 0.0000000 0.0000000 field for delta impulse in time
 
 Orbital magnetization related:
   ORBITALMAG=     F  switch on orbital magnetization
   LCHIMAG   =     F  perturbation theory with respect to B field
   DQ        =  0.001000  dq finite difference perturbation B field
   LLRAUG    =     F  two centre corrections for induced B field



--------------------------------------------------------------------------------------------------------


 Static calculation
 charge density and potential will be updated during run
 non-spin polarized calculation
 RMM-DIIS sequential band-by-band and
  variant of blocked Davidson during initial phase
 perform sub-space diagonalisation
    before iterative eigenvector-optimisation
 modified Broyden-mixing scheme, WC =      100.0
 initial mixing is a Kerker type mixing with AMIX =  0.4000 and BMIX =      1.0000
 Hartree-type preconditioning will be used
 using additional bands           29
 reciprocal scheme for non local part
 use partial core corrections
 calculate Harris-corrections to forces 
   (improved forces if not selfconsistent)
 use gradient corrections 
 use of overlap-Matrix (Vanderbilt PP)
 Gauss-broadening in eV      SIGMA  =   0.05


--------------------------------------------------------------------------------------------------------


  energy-cutoff  :      400.00
  volume of cell :     2620.42
      direct lattice vectors                 reciprocal lattice vectors
    12.300000191  0.000000000  0.000000000     0.081300812 -0.046939053  0.000000000
     6.150000804 10.652112223  0.000000000     0.000000000  0.093878095  0.000000000
     0.000000000  0.000000000 20.000000000     0.000000000  0.000000000  0.050000000

  length of vectors
    12.300000191 12.300000191 20.000000000     0.093878095  0.093878095  0.050000000


 
 old parameters found on file WAVECAR:
  energy-cutoff  :      400.00
  volume of cell :     2620.42
      direct lattice vectors                 reciprocal lattice vectors
    12.300000191  0.000000000  0.000000000     0.081300812 -0.046939053  0.000000000
     6.150000804 10.652112223  0.000000000     0.000000000  0.093878095  0.000000000
     0.000000000  0.000000000 20.000000000     0.000000000  0.000000000  0.050000000

  length of vectors

 
 k-points in units of 2pi/SCALE and weight: K-POINTS                                
   0.00000000  0.00000000  0.00000000       0.111
   0.02710027 -0.01564635  0.00000000       0.222
   0.00000000  0.03129270  0.00000000       0.222
   0.02710027  0.01564635  0.00000000       0.222
  -0.02710027  0.04693905  0.00000000       0.222
 
 k-points in reciprocal lattice and weights: K-POINTS                                
   0.00000000  0.00000000  0.00000000       0.111
   0.33333333  0.00000000  0.00000000       0.222
   0.00000000  0.33333333  0.00000000       0.222
   0.33333333  0.33333333  0.00000000       0.222
  -0.33333333  0.33333333  0.00000000       0.222
 
 position of ions in fractional coordinates (direct lattice) 
   0.00000000  0.00000000  0.41799748
   0.20000000  0.00000000  0.41799748
   0.40000000  0.00000000  0.41799748
   0.60000000  0.00000000  0.41799748
   0.80000000  0.00000000  0.41799748
   0.00000000  0.20000000  0.41799748
   0.20000000  0.20000000  0.41799748
   0.39918699  0.20000000  0.41799748
   0.60000000  0.20000000  0.41799748
   0.80000000  0.20000000  0.41799748
   0.00000000  0.40000000  0.41799748
   0.20000000  0.40000000  0.41799748
   0.40000000  0.40000000  0.41799748
   0.60000000  0.40000000  0.41799748
   0.80000000  0.40000000  0.41799748
   0.00000000  0.60000000  0.41799748
   0.20000000  0.60000000  0.41799748
   0.40000000  0.60000000  0.41799748
   0.60000000  0.60000000  0.41799748
   0.80000000  0.60000000  0.41799748
   0.00000000  0.80000000  0.41799748
   0.20000000  0.80000000  0.41799748
   0.40000000  0.80000000  0.41799748
   0.60000000  0.80000000  0.41799748
   0.80000000  0.80000000  0.41799748
   0.06666667  0.06666660  0.41800609
   0.26666667  0.06666660  0.41800609
   0.46666667  0.06666660  0.41800609
   0.66666667  0.06666660  0.41800609
   0.86666667  0.06666660  0.41800609
   0.06666667  0.26666660  0.41800609
   0.26666667  0.26666660  0.41800609
   0.46666667  0.26666660  0.41800609
   0.66666667  0.26666660  0.41800609
   0.86666667  0.26666660  0.41800609
   0.06666667  0.46666660  0.41800609
   0.26666667  0.46666660  0.41800609
   0.46666667  0.46666660  0.41800609
   0.66666667  0.46666660  0.41800609
   0.86666667  0.46666660  0.41800609
   0.06666667  0.66666660  0.41800609
   0.26666667  0.66666660  0.41800609
   0.46666667  0.66666660  0.41800609
   0.66666667  0.66666660  0.41800609
   0.86666667  0.66666660  0.41800609
   0.06666667  0.86666660  0.41800609
   0.26666667  0.86666660  0.41800609
   0.46666667  0.86666660  0.41800609
   0.66666667  0.86666660  0.41800609
   0.86666667  0.86666660  0.41800609
   0.40000000  0.40000000  0.46800609
 
 position of ions in cartesian coordinates  (Angst):
   0.00000000  0.00000000  8.35994958
   2.46000004  0.00000000  8.35994958
   4.92000008  0.00000000  8.35994958
   7.38000011  0.00000000  8.35994958
   9.84000015  0.00000000  8.35994958
   1.23000016  2.13042244  8.35994958
   3.69000020  2.13042244  8.35994958
   6.14000024  2.13042244  8.35994958
   8.61000028  2.13042244  8.35994958
  11.07000031  2.13042244  8.35994958
   2.46000032  4.26084489  8.35994958
   4.92000036  4.26084489  8.35994958
   7.38000040  4.26084489  8.35994958
   9.84000044  4.26084489  8.35994958
  12.30000047  4.26084489  8.35994958
   3.69000048  6.39126733  8.35994958
   6.15000052  6.39126733  8.35994958
   8.61000056  6.39126733  8.35994958
  11.07000060  6.39126733  8.35994958
  13.53000064  6.39126733  8.35994958
   4.92000064  8.52168978  8.35994958
   7.38000068  8.52168978  8.35994958
   9.84000072  8.52168978  8.35994958
  12.30000076  8.52168978  8.35994958
  14.76000080  8.52168978  8.35994958
   1.22999970  0.71014014  8.36012184
   3.68999974  0.71014014  8.36012184
   6.14999977  0.71014014  8.36012184
   8.60999981  0.71014014  8.36012184
  11.06999985  0.71014014  8.36012184
   2.45999986  2.84056258  8.36012184
   4.91999990  2.84056258  8.36012184
   7.37999994  2.84056258  8.36012184
   9.83999997  2.84056258  8.36012184
  12.30000001  2.84056258  8.36012184
   3.69000002  4.97098503  8.36012184
   6.15000006  4.97098503  8.36012184
   8.61000010  4.97098503  8.36012184
  11.07000013  4.97098503  8.36012184
  13.53000017  4.97098503  8.36012184
   4.92000018  7.10140747  8.36012184
   7.38000022  7.10140747  8.36012184
   9.84000026  7.10140747  8.36012184
  12.30000030  7.10140747  8.36012184
  14.76000033  7.10140747  8.36012184
   6.15000034  9.23182991  8.36012184
   8.61000038  9.23182991  8.36012184
  11.07000042  9.23182991  8.36012184
  13.53000046  9.23182991  8.36012184
  15.99000049  9.23182991  8.36012184
   7.38000040  4.26084489  9.36012184
 


--------------------------------------------------------------------------------------------------------


 k-point  1 :   0.0000 0.0000 0.0000  plane waves:   47639
 k-point  2 :   0.3333 0.0000 0.0000  plane waves:   47601
 k-point  3 :   0.0000 0.3333 0.0000  plane waves:   47601
 k-point  4 :   0.3333 0.3333 0.0000  plane waves:   47601
 k-point  5 :  -0.3333 0.3333 0.0000  plane waves:   47598

 maximum and minimum number of plane-waves per node :      5975     5928

 maximum number of plane-waves:     47639
 maximum index in each direction: 
   IXMAX=   20   IYMAX=   20   IZMAX=   32
   IXMIN=  -20   IYMIN=  -20   IZMIN=  -32


 parallel 3D FFT for wavefunctions:
    minimum data exchange during FFTs selected (reduces bandwidth)
 parallel 3D FFT for charge:
    minimum data exchange during FFTs selected (reduces bandwidth)


 total amount of memory used by VASP MPI-rank0    90113. kBytes
=======================================================================

   base      :      30000. kBytes
   nonl-proj :       8674. kBytes
   fftplans  :      26248. kBytes
   grid      :      14579. kBytes
   one-center:         21. kBytes
   wavefun   :      10591. kBytes
 
     INWAV:  cpu time    0.8283: real time    0.8291
 Broyden mixing: mesh for mixing (old mesh)
   NGX = 41   NGY = 41   NGZ = 65
  (NGX  =160   NGY  =160   NGZ  =280)
  gives a total of 109265 points

 initial charge density was supplied:
 number of electron     206.0000000 magnetization 
 keeping initial charge density in first step


--------------------------------------------------------------------------------------------------------


 Maximum index for augmentation-charges         1119 (set IRDMAX)


--------------------------------------------------------------------------------------------------------


 First call to EWALD:  gamma=   0.129
 Maximum number of real-space cells 3x 3x 2
 Maximum number of reciprocal cells 3x 3x 4

    FEWALD:  cpu time    0.0014: real time    0.0028


--------------------------------------- Iteration      1(   1)  ---------------------------------------


    POTLOK:  cpu time    0.1059: real time    0.1075
    SETDIJ:  cpu time    0.0831: real time    0.0833
     EDDAV:  cpu time    4.1131: real time    4.1167
       DOS:  cpu time    0.0004: real time    0.0004
    CHARGE:  cpu time    0.3972: real time    0.3972
    MIXING:  cpu time    0.0064: real time    0.0065
    --------------------------------------------
      LOOP:  cpu time    4.7063: real time    4.7117

 eigenvalue-minimisations  :  1344
 total energy-change (2. order) :-0.4532927E+03  (-0.2841609E+02)
 number of electron     206.0000000 magnetization 
 augmentation part        5.5091340 magnetization 

 Broyden mixing:
  rms(total) = 0.50471E-01    rms(broyden)= 0.50441E-01
  rms(prec ) = 0.52174E-01
  weight for this iteration     100.00

 Free energy of the ion-electron system (eV)
  ---------------------------------------------------
  alpha Z        PSCENC =        82.54348252
  Ewald energy   TEWEN  =     34516.33663555
  -Hartree energ DENC   =    -41034.64639149
  -exchange      EXHF   =         0.00000000
  -V(xc)+E(xc)   XCENC  =       721.37985546
  PAW double counting   =     22781.19595426   -22817.52509957
  entropy T*S    EENTRO =        -0.00054283
  eigenvalues    EBANDS =     -2491.20101197
  atomic energy  EATOM  =      7788.62438962
  Solvation  Ediel_sol  =         0.00000000
  ---------------------------------------------------
  free energy    TOTEN  =      -453.29272846 eV

  energy without entropy =     -453.29218563  energy(sigma->0) =     -453.29245704


--------------------------------------------------------------------------------------------------------




--------------------------------------- Iteration      1(   2)  ---------------------------------------


    POTLOK:  cpu time    0.0979: real time    0.0992
    SETDIJ:  cpu time    0.0799: real time    0.0815
    EDDIAG:  cpu time    0.8863: real time    0.8867
  RMM-DIIS:  cpu time    3.7061: real time    3.7114
    ORTHCH:  cpu time    0.0413: real time    0.0414
       DOS:  cpu time    0.0004: real time    0.0004
    CHARGE:  cpu time    0.3915: real time    0.3919
    MIXING:  cpu time    0.0057: real time    0.0057
    --------------------------------------------
      LOOP:  cpu time    5.2090: real time    5.2181

 eigenvalue-minimisations  :  1419
 total energy-change (2. order) :-0.9877267E+00  (-0.9904294E+00)
 number of electron     206.0000000 magnetization 
 augmentation part        5.5411785 magnetization 

 Broyden mixing:
  rms(total) = 0.21714E-01    rms(broyden)= 0.21655E-01
  rms(prec ) = 0.23275E-01
  weight for this iteration     100.00

 eigenvalues of (default mixing * dielectric matrix)
  average eigenvalue GAMMA=   0.7313
  0.7313

 Free energy of the ion-electron system (eV)
  ---------------------------------------------------
  alpha Z        PSCENC =        82.54348252
  Ewald energy   TEWEN  =     34516.33663555
  -Hartree energ DENC   =    -41032.06310235
  -exchange      EXHF   =         0.00000000
  -V(xc)+E(xc)   XCENC  =       721.27093802
  PAW double counting   =     22842.26985306   -22878.54712815
  entropy T*S    EENTRO =        -0.00009199
  eigenvalues    EBANDS =     -2494.71543144
  atomic energy  EATOM  =      7788.62438962
  Solvation  Ediel_sol  =         0.00000000
  ---------------------------------------------------
  free energy    TOTEN  =      -454.28045518 eV

  energy without entropy =     -454.28036318  energy(sigma->0) =     -454.28040918


--------------------------------------------------------------------------------------------------------




--------------------------------------- Iteration      1(   3)  ---------------------------------------


    POTLOK:  cpu time    0.0994: real time    0.1014
    SETDIJ:  cpu time    0.0805: real time    0.0822
    EDDIAG:  cpu time    0.8876: real time    0.8897
  RMM-DIIS:  cpu time    4.1463: real time    4.1495
    ORTHCH:  cpu time    0.0413: real time    0.0414
       DOS:  cpu time    0.0004: real time    0.0004
    CHARGE:  cpu time    0.3919: real time    0.3921
    MIXING:  cpu time    0.0046: real time    0.0046
    --------------------------------------------
      LOOP:  cpu time    5.6519: real time    5.6613

 eigenvalue-minimisations  :  1581
 total energy-change (2. order) :-0.5219209E-01  (-0.5857443E-01)
 number of electron     206.0000000 magnetization 
 augmentation part        5.5433375 magnetization 

 Broyden mixing:
  rms(total) = 0.15626E-01    rms(broyden)= 0.15610E-01
  rms(prec ) = 0.16196E-01
  weight for this iteration     100.00

 eigenvalues of (default mixing * dielectric matrix)
  average eigenvalue GAMMA=   0.6652
  0.6652  0.6652

 Free energy of the ion-electron system (eV)
  ---------------------------------------------------
  alpha Z        PSCENC =        82.54348252
  Ewald energy   TEWEN  =     34516.33663555
  -Hartree energ DENC   =    -41032.78652528
  -exchange      EXHF   =         0.00000000
  -V(xc)+E(xc)   XCENC  =       721.30445468
  PAW double counting   =     22831.22445195   -22867.51684186
  entropy T*S    EENTRO =        -0.00012564
  eigenvalues    EBANDS =     -2494.06256880
  atomic energy  EATOM  =      7788.62438962
  Solvation  Ediel_sol  =         0.00000000
  ---------------------------------------------------
  free energy    TOTEN  =      -454.33264726 eV

  energy without entropy =     -454.33252163  energy(sigma->0) =     -454.33258444


--------------------------------------------------------------------------------------------------------




--------------------------------------- Iteration      1(   4)  ---------------------------------------


    POTLOK:  cpu time    0.0973: real time    0.0981
    SETDIJ:  cpu time    0.0797: real time    0.0811
    EDDIAG:  cpu time    0.8840: real time    0.8841
  RMM-DIIS:  cpu time    4.0856: real time    4.0890
    ORTHCH:  cpu time    0.0420: real time    0.0421
       DOS:  cpu time    0.0003: real time    0.0003
    CHARGE:  cpu time    0.3906: real time    0.3911
    MIXING:  cpu time    0.0044: real time    0.0044
    --------------------------------------------
      LOOP:  cpu time    5.5840: real time    5.5903

 eigenvalue-minimisations  :  1578
 total energy-change (2. order) :-0.3855981E-02  (-0.4052851E-02)
 number of electron     206.0000000 magnetization 
 augmentation part        5.5458945 magnetization 

 Broyden mixing:
  rms(total) = 0.15460E-01    rms(broyden)= 0.15459E-01
  rms(prec ) = 0.15950E-01
  weight for this iteration     100.00

 eigenvalues of (default mixing * dielectric matrix)
  average eigenvalue GAMMA=   0.9911
  1.2091  1.2091  0.5551

 Free energy of the ion-electron system (eV)
  ---------------------------------------------------
  alpha Z        PSCENC =        82.54348252
  Ewald energy   TEWEN  =     34516.33663555
  -Hartree energ DENC   =    -41033.11459193
  -exchange      EXHF   =         0.00000000
  -V(xc)+E(xc)   XCENC  =       721.31920724
  PAW double counting   =     22822.64696570   -22858.94676525
  entropy T*S    EENTRO =        -0.00010847
  eigenvalues    EBANDS =     -2493.74571821
  atomic energy  EATOM  =      7788.62438962
  Solvation  Ediel_sol  =         0.00000000
  ---------------------------------------------------
  free energy    TOTEN  =      -454.33650324 eV

  energy without entropy =     -454.33639477  energy(sigma->0) =     -454.33644901


--------------------------------------------------------------------------------------------------------




--------------------------------------- Iteration      1(   5)  ---------------------------------------


    POTLOK:  cpu time    0.0975: real time    0.0979
    SETDIJ:  cpu time    0.0796: real time    0.0796
    EDDIAG:  cpu time    0.8875: real time    0.8879
  RMM-DIIS:  cpu time    3.9583: real time    3.9619
    ORTHCH:  cpu time    0.0415: real time    0.0416
       DOS:  cpu time    0.0003: real time    0.0003
    CHARGE:  cpu time    0.3907: real time    0.3907
    MIXING:  cpu time    0.0058: real time    0.0058
    --------------------------------------------
      LOOP:  cpu time    5.4613: real time    5.4657

 eigenvalue-minimisations  :  1509
 total energy-change (2. order) :-0.9502006E-04  (-0.3213383E-03)
 number of electron     206.0000000 magnetization 
 augmentation part        5.5448674 magnetization 

 Broyden mixing:
  rms(total) = 0.60189E-02    rms(broyden)= 0.60179E-02
  rms(prec ) = 0.61854E-02
  weight for this iteration     100.00

 eigenvalues of (default mixing * dielectric matrix)
  average eigenvalue GAMMA=   1.1559
  1.4956  1.4956  0.5699  1.0625

 Free energy of the ion-electron system (eV)
  ---------------------------------------------------
  alpha Z        PSCENC =        82.54348252
  Ewald energy   TEWEN  =     34516.33663555
  -Hartree energ DENC   =    -41034.04720254
  -exchange      EXHF   =         0.00000000
  -V(xc)+E(xc)   XCENC  =       721.35815685
  PAW double counting   =     22794.29073805   -22830.61070728
  entropy T*S    EENTRO =        -0.00011218
  eigenvalues    EBANDS =     -2492.83197884
  atomic energy  EATOM  =      7788.62438962
  Solvation  Ediel_sol  =         0.00000000
  ---------------------------------------------------
  free energy    TOTEN  =      -454.33659826 eV

  energy without entropy =     -454.33648608  energy(sigma->0) =     -454.33654217


--------------------------------------------------------------------------------------------------------




--------------------------------------- Iteration      1(   6)  ---------------------------------------


    POTLOK:  cpu time    0.0990: real time    0.1004
    SETDIJ:  cpu time    0.0797: real time    0.0816
    EDDIAG:  cpu time    0.8839: real time    0.8849
  RMM-DIIS:  cpu time    4.0631: real time    4.0654
    ORTHCH:  cpu time    0.0408: real time    0.0412
       DOS:  cpu time    0.0004: real time    0.0004
    CHARGE:  cpu time    0.3897: real time    0.3897
    MIXING:  cpu time    0.0060: real time    0.0060
    --------------------------------------------
      LOOP:  cpu time    5.5627: real time    5.5696

 eigenvalue-minimisations  :  1526
 total energy-change (2. order) :-0.2810617E-04  (-0.5138948E-04)
 number of electron     206.0000000 magnetization 
 augmentation part        5.5441985 magnetization 

 Broyden mixing:
  rms(total) = 0.18342E-02    rms(broyden)= 0.18324E-02
  rms(prec ) = 0.19011E-02
  weight for this iteration     100.00

 eigenvalues of (default mixing * dielectric matrix)
  average eigenvalue GAMMA=   1.1971
  2.0336  1.2053  1.2053  0.9712  0.5699

 Free energy of the ion-electron system (eV)
  ---------------------------------------------------
  alpha Z        PSCENC =        82.54348252
  Ewald energy   TEWEN  =     34516.33663555
  -Hartree energ DENC   =    -41034.73326797
  -exchange      EXHF   =         0.00000000
  -V(xc)+E(xc)   XCENC  =       721.38677151
  PAW double counting   =     22774.08107683   -22810.41480239
  entropy T*S    EENTRO =        -0.00011403
  eigenvalues    EBANDS =     -2492.16079800
  atomic energy  EATOM  =      7788.62438962
  Solvation  Ediel_sol  =         0.00000000
  ---------------------------------------------------
  free energy    TOTEN  =      -454.33662637 eV

  energy without entropy =     -454.33651234  energy(sigma->0) =     -454.33656935


--------------------------------------------------------------------------------------------------------




--------------------------------------- Iteration      1(   7)  ---------------------------------------


    POTLOK:  cpu time    0.1005: real time    0.1006
    SETDIJ:  cpu time    0.0807: real time    0.0807
    EDDIAG:  cpu time    0.8981: real time    0.8985
  RMM-DIIS:  cpu time    2.8807: real time    2.8820
    ORTHCH:  cpu time    0.0418: real time    0.0418
       DOS:  cpu time    0.0003: real time    0.0003
    --------------------------------------------
      LOOP:  cpu time    4.0020: real time    4.0039

 eigenvalue-minimisations  :  1029
 total energy-change (2. order) :-0.6164666E-05  (-0.2132624E-05)
 number of electron     206.0000000 magnetization 
 augmentation part        5.5441985 magnetization 

 Free energy of the ion-electron system (eV)
  ---------------------------------------------------
  alpha Z        PSCENC =        82.54348252
  Ewald energy   TEWEN  =     34516.33663555
  -Hartree energ DENC   =    -41034.69374844
  -exchange      EXHF   =         0.00000000
  -V(xc)+E(xc)   XCENC  =       721.38465561
  PAW double counting   =     22777.05300484   -22813.38494965
  entropy T*S    EENTRO =        -0.00011492
  eigenvalues    EBANDS =     -2492.19998766
  atomic energy  EATOM  =      7788.62438962
  Solvation  Ediel_sol  =         0.00000000
  ---------------------------------------------------
  free energy    TOTEN  =      -454.33663253 eV

  energy without entropy =     -454.33651761  energy(sigma->0) =     -454.33657507


--------------------------------------------------------------------------------------------------------




 average (electrostatic) potential at core
  the test charge radii are     0.6991  0.7215
  (the norm of the test charge is              1.0000)
       1 -58.2597       2 -58.2587       3 -58.2015       4 -58.0594       5 -58.2039
       6 -58.2596       7 -58.2730       8 -58.1366       9 -58.1341      10 -58.2754
      11 -58.2011      12 -58.1317      13 -60.6852      14 -58.1326      15 -58.2025
      16 -58.0581      17 -58.1310      18 -58.1316      19 -58.0581      20 -58.0647
      21 -58.2026      22 -58.2756      23 -58.2022      24 -58.0649      25 -58.0653
      26 -58.3806      27 -58.2897      28 -58.2217      29 -58.2229      30 -58.2928
      31 -58.2905      32 -58.3100      33 -58.8241      34 -58.3151      35 -58.2911
      36 -58.2205      37 -58.8055      38 -58.8094      39 -58.2208      40 -58.2222
      41 -58.2204      42 -58.3142      43 -58.2208      44 -58.1636      45 -58.1638
      46 -58.2920      47 -58.2927      48 -58.2212      49 -58.1645      50 -58.2227
      51 -81.5794
 
 
 
 E-fermi :  -3.0168     XC(G=0):  -2.2107     alpha+bet : -1.9409


 k-point     1 :       0.0000    0.0000    0.0000
  band No.  band energies     occupation 
      1     -31.7423      2.00000
      2     -22.2712      2.00000
      3     -21.5067      2.00000
      4     -21.5007      2.00000
      5     -21.3947      2.00000
      6     -21.3937      2.00000
      7     -21.3928      2.00000
      8     -20.8737      2.00000
      9     -19.8759      2.00000
     10     -19.8710      2.00000
     11     -19.5542      2.00000
     12     -19.5468      2.00000
     13     -19.5397      2.00000
     14     -19.1901      2.00000
     15     -18.9005      2.00000
     16     -18.8991      2.00000
     17     -18.6491      2.00000
     18     -18.6429      2.00000
     19     -18.6409      2.00000
     20     -17.8816      2.00000
     21     -17.0255      2.00000
     22     -17.0203      2.00000
     23     -16.4775      2.00000
     24     -16.4587      2.00000
     25     -16.4574      2.00000
     26     -16.0514      2.00000
     27     -15.9969      2.00000
     28     -15.9934      2.00000
     29     -15.5018      2.00000
     30     -15.4981      2.00000
     31     -15.4916      2.00000
     32     -15.0891      2.00000
     33     -14.6296      2.00000
     34     -14.6280      2.00000
     35     -14.1509      2.00000
     36     -14.1485      2.00000
     37     -14.1426      2.00000
     38     -13.9634      2.00000
     39     -12.9925      2.00000
     40     -12.9861      2.00000
     41     -12.0285      2.00000
     42     -11.7669      2.00000
     43     -11.7648      2.00000
     44     -11.7558      2.00000
     45     -11.6966      2.00000
     46     -11.6913      2.00000
     47     -11.6522      2.00000
     48     -11.6505      2.00000
     49     -11.6483      2.00000
     50     -11.6478      2.00000
     51     -10.8015      2.00000
     52     -10.7970      2.00000
     53     -10.4293      2.00000
     54     -10.3346      2.00000
     55     -10.2892      2.00000
     56     -10.2850      2.00000
     57     -10.2740      2.00000
     58     -10.0803      2.00000
     59      -9.6865      2.00000
     60      -9.6823      2.00000
     61      -9.3285      2.00000
     62      -9.3249      2.00000
     63      -9.2999      2.00000
     64      -9.2794      2.00000
     65      -9.2778      2.00000
     66      -9.0419      2.00000
     67      -9.0056      2.00000
     68      -9.0039      2.00000
     69      -8.9517      2.00000
     70      -8.9419      2.00000
     71      -8.9399      2.00000
     72      -8.9358      2.00000
     73      -8.9261      2.00000
     74      -8.9173      2.00000
     75      -8.8937      2.00000
     76      -8.4358      2.00000
     77      -7.8021      2.00000
     78      -7.7980      2.00000
     79      -7.3252      2.00000
     80      -7.3210      2.00000
     81      -7.3141      2.00000
     82      -7.3017      2.00000
     83      -7.2994      2.00000
     84      -7.2941      2.00000
     85      -7.1657      2.00000
     86      -7.1598      2.00000
     87      -7.1549      2.00000
     88      -6.7510      2.00000
     89      -6.5075      2.00000
     90      -6.5052      2.00000
     91      -6.2675      2.00000
     92      -6.2490      2.00000
     93      -6.2458      2.00000
     94      -5.9263      2.00000
     95      -5.9185      2.00000
     96      -5.1934      2.00000
     97      -4.7667      2.00000
     98      -4.7640      2.00000
     99      -4.2706      2.00000
    100      -4.2662      2.00000
    101      -4.2650      2.00000
    102      -3.2149      2.00000
    103      -3.2134      2.00000
    104      -2.9158      0.00431
    105      -1.4640      0.00000
    106      -1.4574      0.00000
    107      -1.4559      0.00000
    108      -0.9911      0.00000
    109      -0.9881      0.00000
    110      -0.5444      0.00000
    111       0.4159      0.00000
    112       0.4221      0.00000
    113       0.4262      0.00000
    114       0.5618      0.00000
    115       0.8386      0.00000
    116       0.8455      0.00000
    117       1.2933      0.00000
    118       1.3398      0.00000
    119       1.6807      0.00000
    120       1.8013      0.00000
    121       1.8023      0.00000
    122       1.8027      0.00000
    123       1.8261      0.00000
    124       1.8268      0.00000
    125       2.0310      0.00000
    126       2.1759      0.00000
    127       2.1795      0.00000
    128       2.1858      0.00000
    129       2.3393      0.00000
    130       2.3477      0.00000
    131       2.6115      0.00000
    132       2.7663      0.00000

 k-point     2 :       0.3333    0.0000    0.0000
  band No.  band energies     occupation 
      1     -31.7423      2.00000
      2     -22.1890      2.00000
      3     -21.8695      2.00000
      4     -21.6617      2.00000
      5     -21.4541      2.00000
      6     -21.0344      2.00000
      7     -20.8963      2.00000
      8     -20.7275      2.00000
      9     -20.4198      2.00000
     10     -20.1611      2.00000
     11     -19.7878      2.00000
     12     -19.6964      2.00000
     13     -19.3261      2.00000
     14     -19.2421      2.00000
     15     -19.0620      2.00000
     16     -18.5937      2.00000
     17     -18.4564      2.00000
     18     -18.1204      2.00000
     19     -18.0632      2.00000
     20     -17.5915      2.00000
     21     -17.5000      2.00000
     22     -17.3002      2.00000
     23     -17.2765      2.00000
     24     -16.8490      2.00000
     25     -16.6609      2.00000
     26     -16.1765      2.00000
     27     -15.9803      2.00000
     28     -15.8477      2.00000
     29     -15.2994      2.00000
     30     -15.1664      2.00000
     31     -15.1333      2.00000
     32     -14.8836      2.00000
     33     -14.7823      2.00000
     34     -14.4767      2.00000
     35     -14.4598      2.00000
     36     -13.7662      2.00000
     37     -13.7574      2.00000
     38     -13.1947      2.00000
     39     -13.0904      2.00000
     40     -12.9354      2.00000
     41     -12.9044      2.00000
     42     -12.5854      2.00000
     43     -12.5526      2.00000
     44     -12.3882      2.00000
     45     -12.0173      2.00000
     46     -11.6603      2.00000
     47     -11.4467      2.00000
     48     -11.2956      2.00000
     49     -11.1208      2.00000
     50     -10.9147      2.00000
     51     -10.8507      2.00000
     52     -10.5873      2.00000
     53     -10.5330      2.00000
     54     -10.2861      2.00000
     55     -10.2371      2.00000
     56     -10.1597      2.00000
     57     -10.0494      2.00000
     58      -9.8534      2.00000
     59      -9.8225      2.00000
     60      -9.6535      2.00000
     61      -9.6073      2.00000
     62      -9.5601      2.00000
     63      -9.5273      2.00000
     64      -9.3691      2.00000
     65      -9.3400      2.00000
     66      -9.2591      2.00000
     67      -9.1759      2.00000
     68      -9.0992      2.00000
     69      -9.0829      2.00000
     70      -8.8645      2.00000
     71      -8.7104      2.00000
     72      -8.6642      2.00000
     73      -8.5049      2.00000
     74      -8.4036      2.00000
     75      -8.2838      2.00000
     76      -8.1330      2.00000
     77      -8.0947      2.00000
     78      -8.0651      2.00000
     79      -7.9726      2.00000
     80      -7.8076      2.00000
     81      -7.6214      2.00000
     82      -7.3624      2.00000
     83      -7.3373      2.00000
     84      -7.2660      2.00000
     85      -7.1999      2.00000
     86      -6.9199      2.00000
     87      -6.8722      2.00000
     88      -6.6888      2.00000
     89      -6.5911      2.00000
     90      -6.3512      2.00000
     91      -6.1846      2.00000
     92      -6.0717      2.00000
     93      -5.9212      2.00000
     94      -5.7385      2.00000
     95      -5.6410      2.00000
     96      -5.3214      2.00000
     97      -5.1171      2.00000
     98      -4.9703      2.00000
     99      -4.9218      2.00000
    100      -4.2686      2.00000
    101      -4.1714      2.00000
    102      -3.3322      2.00000
    103      -3.1368      1.99931
    104      -2.8076      0.00000
    105      -1.5880      0.00000
    106      -1.4242      0.00000
    107      -0.8392      0.00000
    108      -0.8181      0.00000
    109      -0.7076      0.00000
    110      -0.6687      0.00000
    111      -0.1284      0.00000
    112      -0.0048      0.00000
    113       0.2924      0.00000
    114       0.7042      0.00000
    115       0.7251      0.00000
    116       1.0997      0.00000
    117       1.1765      0.00000
    118       1.3644      0.00000
    119       1.4627      0.00000
    120       1.5370      0.00000
    121       1.5705      0.00000
    122       1.6369      0.00000
    123       1.8304      0.00000
    124       1.9114      0.00000
    125       2.0380      0.00000
    126       2.2216      0.00000
    127       2.2710      0.00000
    128       2.3290      0.00000
    129       2.3388      0.00000
    130       2.3950      0.00000
    131       2.4572      0.00000
    132       2.7963      0.00000

 k-point     3 :       0.0000    0.3333    0.0000
  band No.  band energies     occupation 
      1     -31.7423      2.00000
      2     -22.1890      2.00000
      3     -21.8691      2.00000
      4     -21.6632      2.00000
      5     -21.4529      2.00000
      6     -21.0359      2.00000
      7     -20.8944      2.00000
      8     -20.7259      2.00000
      9     -20.4218      2.00000
     10     -20.1624      2.00000
     11     -19.7857      2.00000
     12     -19.6993      2.00000
     13     -19.3253      2.00000
     14     -19.2437      2.00000
     15     -19.0566      2.00000
     16     -18.5958      2.00000
     17     -18.4564      2.00000
     18     -18.1224      2.00000
     19     -18.0616      2.00000
     20     -17.5908      2.00000
     21     -17.5014      2.00000
     22     -17.3006      2.00000
     23     -17.2766      2.00000
     24     -16.8511      2.00000
     25     -16.6571      2.00000
     26     -16.1799      2.00000
     27     -15.9758      2.00000
     28     -15.8468      2.00000
     29     -15.3003      2.00000
     30     -15.1693      2.00000
     31     -15.1344      2.00000
     32     -14.8852      2.00000
     33     -14.7815      2.00000
     34     -14.4761      2.00000
     35     -14.4569      2.00000
     36     -13.7650      2.00000
     37     -13.7590      2.00000
     38     -13.1947      2.00000
     39     -13.0892      2.00000
     40     -12.9344      2.00000
     41     -12.9047      2.00000
     42     -12.5848      2.00000
     43     -12.5502      2.00000
     44     -12.3919      2.00000
     45     -12.0215      2.00000
     46     -11.6586      2.00000
     47     -11.4467      2.00000
     48     -11.2964      2.00000
     49     -11.1220      2.00000
     50     -10.9135      2.00000
     51     -10.8510      2.00000
     52     -10.5848      2.00000
     53     -10.5314      2.00000
     54     -10.2870      2.00000
     55     -10.2370      2.00000
     56     -10.1618      2.00000
     57     -10.0492      2.00000
     58      -9.8534      2.00000
     59      -9.8159      2.00000
     60      -9.6537      2.00000
     61      -9.6090      2.00000
     62      -9.5596      2.00000
     63      -9.5280      2.00000
     64      -9.3717      2.00000
     65      -9.3401      2.00000
     66      -9.2611      2.00000
     67      -9.1747      2.00000
     68      -9.0979      2.00000
     69      -9.0815      2.00000
     70      -8.8659      2.00000
     71      -8.7128      2.00000
     72      -8.6630      2.00000
     73      -8.5035      2.00000
     74      -8.4050      2.00000
     75      -8.2889      2.00000
     76      -8.1342      2.00000
     77      -8.0922      2.00000
     78      -8.0664      2.00000
     79      -7.9700      2.00000
     80      -7.8083      2.00000
     81      -7.6216      2.00000
     82      -7.3600      2.00000
     83      -7.3376      2.00000
     84      -7.2654      2.00000
     85      -7.1967      2.00000
     86      -6.9196      2.00000
     87      -6.8738      2.00000
     88      -6.6930      2.00000
     89      -6.5870      2.00000
     90      -6.3478      2.00000
     91      -6.1871      2.00000
     92      -6.0744      2.00000
     93      -5.9214      2.00000
     94      -5.7400      2.00000
     95      -5.6389      2.00000
     96      -5.3224      2.00000
     97      -5.1168      2.00000
     98      -4.9699      2.00000
     99      -4.9223      2.00000
    100      -4.2698      2.00000
    101      -4.1672      2.00000
    102      -3.3412      2.00000
    103      -3.1368      1.99932
    104      -2.7984      0.00000
    105      -1.5931      0.00000
    106      -1.4237      0.00000
    107      -0.8395      0.00000
    108      -0.8187      0.00000
    109      -0.7065      0.00000
    110      -0.6669      0.00000
    111      -0.1299      0.00000
    112      -0.0041      0.00000
    113       0.2931      0.00000
    114       0.7042      0.00000
    115       0.7291      0.00000
    116       1.0969      0.00000
    117       1.1722      0.00000
    118       1.3669      0.00000
    119       1.4633      0.00000
    120       1.5372      0.00000
    121       1.5706      0.00000
    122       1.6368      0.00000
    123       1.8313      0.00000
    124       1.9127      0.00000
    125       2.0429      0.00000
    126       2.2248      0.00000
    127       2.2742      0.00000
    128       2.3360      0.00000
    129       2.4262      0.00000
    130       2.7414      0.00000
    131       3.2542      0.00000
    132       3.6141      0.00000

 k-point     4 :       0.3333    0.3333    0.0000
  band No.  band energies     occupation 
      1     -31.7423      2.00000
      2     -22.1893      2.00000
      3     -21.8694      2.00000
      4     -21.6597      2.00000
      5     -21.4565      2.00000
      6     -21.0331      2.00000
      7     -20.8994      2.00000
      8     -20.7263      2.00000
      9     -20.4185      2.00000
     10     -20.1603      2.00000
     11     -19.7864      2.00000
     12     -19.6970      2.00000
     13     -19.3263      2.00000
     14     -19.2427      2.00000
     15     -19.0659      2.00000
     16     -18.5917      2.00000
     17     -18.4566      2.00000
     18     -18.1212      2.00000
     19     -18.0624      2.00000
     20     -17.5915      2.00000
     21     -17.4951      2.00000
     22     -17.3009      2.00000
     23     -17.2763      2.00000
     24     -16.8554      2.00000
     25     -16.6582      2.00000
     26     -16.1759      2.00000
     27     -15.9781      2.00000
     28     -15.8474      2.00000
     29     -15.2984      2.00000
     30     -15.1713      2.00000
     31     -15.1376      2.00000
     32     -14.8834      2.00000
     33     -14.7838      2.00000
     34     -14.4773      2.00000
     35     -14.4539      2.00000
     36     -13.7653      2.00000
     37     -13.7566      2.00000
     38     -13.1973      2.00000
     39     -13.0859      2.00000
     40     -12.9324      2.00000
     41     -12.9033      2.00000
     42     -12.5857      2.00000
     43     -12.5494      2.00000
     44     -12.3907      2.00000
     45     -12.0250      2.00000
     46     -11.6625      2.00000
     47     -11.4479      2.00000
     48     -11.2972      2.00000
     49     -11.1228      2.00000
     50     -10.9143      2.00000
     51     -10.8521      2.00000
     52     -10.5850      2.00000
     53     -10.5279      2.00000
     54     -10.2833      2.00000
     55     -10.2372      2.00000
     56     -10.1606      2.00000
     57     -10.0484      2.00000
     58      -9.8536      2.00000
     59      -9.8170      2.00000
     60      -9.6540      2.00000
     61      -9.6071      2.00000
     62      -9.5610      2.00000
     63      -9.5258      2.00000
     64      -9.3714      2.00000
     65      -9.3415      2.00000
     66      -9.2586      2.00000
     67      -9.1750      2.00000
     68      -9.1001      2.00000
     69      -9.0814      2.00000
     70      -8.8637      2.00000
     71      -8.7135      2.00000
     72      -8.6663      2.00000
     73      -8.5042      2.00000
     74      -8.4098      2.00000
     75      -8.2880      2.00000
     76      -8.1334      2.00000
     77      -8.0928      2.00000
     78      -8.0692      2.00000
     79      -7.9700      2.00000
     80      -7.8068      2.00000
     81      -7.6170      2.00000
     82      -7.3585      2.00000
     83      -7.3347      2.00000
     84      -7.2658      2.00000
     85      -7.1941      2.00000
     86      -6.9202      2.00000
     87      -6.8728      2.00000
     88      -6.6954      2.00000
     89      -6.5945      2.00000
     90      -6.3461      2.00000
     91      -6.1866      2.00000
     92      -6.0743      2.00000
     93      -5.9208      2.00000
     94      -5.7383      2.00000
     95      -5.6407      2.00000
     96      -5.3220      2.00000
     97      -5.1147      2.00000
     98      -4.9704      2.00000
     99      -4.9224      2.00000
    100      -4.2713      2.00000
    101      -4.1688      2.00000
    102      -3.3354      2.00000
    103      -3.1355      1.99922
    104      -2.8044      0.00000
    105      -1.5920      0.00000
    106      -1.4245      0.00000
    107      -0.8393      0.00000
    108      -0.8198      0.00000
    109      -0.7060      0.00000
    110      -0.6665      0.00000
    111      -0.1272      0.00000
    112      -0.0073      0.00000
    113       0.2930      0.00000
    114       0.7044      0.00000
    115       0.7283      0.00000
    116       1.1016      0.00000
    117       1.1782      0.00000
    118       1.3638      0.00000
    119       1.4644      0.00000
    120       1.5612      0.00000
    121       1.5780      0.00000
    122       1.7497      0.00000
    123       1.8317      0.00000
    124       2.1756      0.00000
    125       2.3355      0.00000
    126       2.3968      0.00000
    127       2.6175      0.00000
    128       2.7877      0.00000
    129       2.8468      0.00000
    130       3.2035      0.00000
    131       3.5937      0.00000
    132       4.1759      0.00000

 k-point     5 :      -0.3333    0.3333    0.0000
  band No.  band energies     occupation 
      1     -31.7424      2.00000
      2     -22.0808      2.00000
      3     -22.0073      2.00000
      4     -21.8021      2.00000
      5     -21.1697      2.00000
      6     -21.1526      2.00000
      7     -20.8671      2.00000
      8     -20.4089      2.00000
      9     -20.3402      2.00000
     10     -20.1725      2.00000
     11     -20.1503      2.00000
     12     -20.1435      2.00000
     13     -19.5653      2.00000
     14     -18.8243      2.00000
     15     -18.6739      2.00000
     16     -18.3721      2.00000
     17     -18.3491      2.00000
     18     -18.3369      2.00000
     19     -17.9308      2.00000
     20     -17.8034      2.00000
     21     -17.6008      2.00000
     22     -17.2614      2.00000
     23     -17.1524      2.00000
     24     -17.1199      2.00000
     25     -16.5445      2.00000
     26     -16.4378      2.00000
     27     -16.2860      2.00000
     28     -15.8076      2.00000
     29     -15.6315      2.00000
     30     -15.1752      2.00000
     31     -14.9673      2.00000
     32     -14.6522      2.00000
     33     -13.9586      2.00000
     34     -13.9409      2.00000
     35     -13.9241      2.00000
     36     -13.8737      2.00000
     37     -13.8647      2.00000
     38     -13.7921      2.00000
     39     -13.6728      2.00000
     40     -13.4950      2.00000
     41     -13.0335      2.00000
     42     -12.4744      2.00000
     43     -12.2540      2.00000
     44     -12.0719      2.00000
     45     -11.8244      2.00000
     46     -11.7711      2.00000
     47     -11.5634      2.00000
     48     -11.5439      2.00000
     49     -11.5247      2.00000
     50     -10.9291      2.00000
     51     -10.8185      2.00000
     52     -10.5281      2.00000
     53     -10.2063      2.00000
     54     -10.2052      2.00000
     55     -10.1938      2.00000
     56     -10.0951      2.00000
     57     -10.0513      2.00000
     58     -10.0217      2.00000
     59      -9.9010      2.00000
     60      -9.7521      2.00000
     61      -9.7468      2.00000
     62      -9.5617      2.00000
     63      -9.4465      2.00000
     64      -9.4081      2.00000
     65      -9.1942      2.00000
     66      -9.0477      2.00000
     67      -9.0321      2.00000
     68      -8.9034      2.00000
     69      -8.8830      2.00000
     70      -8.6864      2.00000
     71      -8.6400      2.00000
     72      -8.6332      2.00000
     73      -8.6282      2.00000
     74      -8.5816      2.00000
     75      -8.3738      2.00000
     76      -8.2482      2.00000
     77      -8.1692      2.00000
     78      -8.0322      2.00000
     79      -7.9846      2.00000
     80      -7.8806      2.00000
     81      -7.8580      2.00000
     82      -7.8551      2.00000
     83      -7.2282      2.00000
     84      -7.1854      2.00000
     85      -7.1264      2.00000
     86      -6.8834      2.00000
     87      -6.7215      2.00000
     88      -6.6100      2.00000
     89      -6.4620      2.00000
     90      -6.2658      2.00000
     91      -6.1018      2.00000
     92      -5.9174      2.00000
     93      -5.9107      2.00000
     94      -5.8979      2.00000
     95      -5.4539      2.00000
     96      -5.4252      2.00000
     97      -5.1214      2.00000
     98      -5.0135      2.00000
     99      -4.9807      2.00000
    100      -4.9576      2.00000
    101      -3.7342      2.00000
    102      -3.4567      2.00000
    103      -3.2798      2.00000
    104      -2.3861      0.00000
    105      -2.2252      0.00000
    106      -0.9285      0.00000
    107      -0.8821      0.00000
    108      -0.8673      0.00000
    109      -0.5376      0.00000
    110      -0.2644      0.00000
    111      -0.2116      0.00000
    112       0.2543      0.00000
    113       0.2583      0.00000
    114       0.2617      0.00000
    115       0.5980      0.00000
    116       0.7896      0.00000
    117       0.9476      0.00000
    118       0.9736      0.00000
    119       1.0610      0.00000
    120       1.7334      0.00000
    121       1.7449      0.00000
    122       1.7676      0.00000
    123       1.8257      0.00000
    124       2.1193      0.00000
    125       2.1237      0.00000
    126       2.1257      0.00000
    127       2.2454      0.00000
    128       2.2479      0.00000
    129       2.3611      0.00000
    130       3.0017      0.00000
    131       3.0151      0.00000
    132       3.0360      0.00000


--------------------------------------------------------------------------------------------------------


 soft charge-density along one line, spin component           1
         0         1         2         3         4         5         6         7         8         9
 total charge-density along one line
 
 pseudopotential strength for first ion, spin component:           1
 10.222  13.593   0.000  -0.000   0.000  -0.000   0.000  -0.000
 13.593  18.076   0.000  -0.000   0.000  -0.000   0.000  -0.000
  0.000   0.000  -4.352  -0.000  -0.000   8.512   0.000   0.000
 -0.000  -0.000  -0.000  -4.344  -0.000   0.000   8.502   0.000
  0.000   0.000  -0.000  -0.000  -4.352   0.000   0.000   8.513
 -0.000  -0.000   8.512   0.000   0.000 -18.786  -0.000  -0.000
  0.000   0.000   0.000   8.502   0.000  -0.000 -18.776  -0.000
 -0.000  -0.000   0.000   0.000   8.513  -0.000  -0.000 -18.787
 total augmentation occupancy for first ion, spin component:           1
  8.358  -3.741   0.001   0.000   0.003   0.000   0.000   0.001
 -3.741   1.730  -0.002  -0.000  -0.003  -0.000   0.000  -0.000
  0.001  -0.002   1.840  -0.000  -0.001   0.174   0.000   0.000
  0.000  -0.000  -0.000   1.223  -0.000   0.000   0.078   0.000
  0.003  -0.003  -0.001  -0.000   1.839   0.000   0.000   0.174
  0.000  -0.000   0.174   0.000   0.000   0.018   0.000   0.000
  0.000   0.000   0.000   0.078   0.000   0.000   0.005   0.000
  0.001  -0.000   0.000   0.000   0.174   0.000   0.000   0.018


------------------------ aborting loop because EDIFF is reached ----------------------------------------


    CHARGE:  cpu time    0.4090: real time    0.4090
    FORLOC:  cpu time    0.0269: real time    0.0269
    FORNL :  cpu time    1.9740: real time    1.9750
    STRESS:  cpu time    3.2926: real time    3.2944
    FORCOR:  cpu time    0.1204: real time    0.1204
    FORHAR:  cpu time    0.0484: real time    0.0484
    MIXING:  cpu time    0.0038: real time    0.0038
    OFIELD:  cpu time    0.0001: real time    0.0001

  FORCE on cell =-STRESS in cart. coord.  units (eV):
  Direction    XX          YY          ZZ          XY          YZ          ZX
  --------------------------------------------------------------------------------------
  Alpha Z    82.54348    82.54348    82.54348
  Ewald   41234.80528 41234.07510-47952.56441    -2.07005    -0.20617     0.05413
  Hartree 40516.91321 40516.29203-39998.70128    -0.16882    -0.17507     0.05915
  E(xc)    -777.15434  -777.15465  -804.23379    -0.00708     0.00029    -0.00007
  Local  -83989.38421-83987.96885 85337.56703     1.80783     0.42437    -0.12151
  n-local  -203.93809  -203.91649  -194.69617    -0.01813     0.02235    -0.00200
  augment   -12.37932   -12.38431   -14.04652     0.00350    -0.00293     0.00035
  Kinetic  3164.21139  3164.00629  3596.29654     0.32546    -0.15212     0.01444
  Fock        0.00000     0.00000     0.00000     0.00000     0.00000     0.00000
  -------------------------------------------------------------------------------------
  Total      15.61740    15.49261    52.16489    -0.12730    -0.08927     0.00449
  in kB       9.54880     9.47250    31.89466    -0.07783    -0.05458     0.00274
  external pressure =       16.97 kB  Pullay stress =        0.00 kB


 VOLUME and BASIS-vectors are now :
 -----------------------------------------------------------------------------
  energy-cutoff  :      400.00
  volume of cell :     2620.42
      direct lattice vectors                 reciprocal lattice vectors
    12.300000191  0.000000000  0.000000000     0.081300812 -0.046939053  0.000000000
     6.150000804 10.652112223  0.000000000     0.000000000  0.093878095  0.000000000
     0.000000000  0.000000000 20.000000000     0.000000000  0.000000000  0.050000000

  length of vectors
    12.300000191 12.300000191 20.000000000     0.093878095  0.093878095  0.050000000


 FORCES acting on ions
    electron-ion (+dipol)            ewald-force                    non-local-force                 convergence-correction
 -----------------------------------------------------------------------------------------------
   -.145E+01 -.856E+00 0.279E+01   0.132E+01 0.778E+00 -.278E+01   0.828E-01 0.491E-01 -.262E-03   -.102E-04 0.108E-02 0.748E-03
   0.152E+01 -.818E+00 0.279E+01   -.139E+01 0.740E+00 -.278E+01   -.880E-01 0.462E-01 -.104E-03   0.249E-02 0.932E-03 0.319E-04
   0.369E+01 0.662E+01 0.381E+01   -.371E+01 -.669E+01 -.377E+01   -.131E+00 0.541E-01 -.689E-01   -.200E-03 0.356E-02 0.171E-03
   -.734E-03 0.127E+02 0.480E+01   0.308E-01 -.129E+02 -.494E+01   -.191E-01 0.387E-01 0.114E+00   -.135E-02 0.409E-02 0.312E-04
   -.365E+01 0.638E+01 0.381E+01   0.370E+01 -.645E+01 -.377E+01   0.113E+00 0.783E-01 -.719E-01   -.143E-02 0.310E-02 0.477E-03
   0.532E-01 0.171E+01 0.279E+01   -.517E-01 -.156E+01 -.278E+01   -.199E-02 -.985E-01 -.396E-03   0.165E-02 -.448E-03 0.421E-03
   0.120E+02 0.673E+01 0.489E+01   -.117E+02 -.655E+01 -.494E+01   0.814E-01 0.578E-01 0.505E-01   0.206E-02 -.172E-03 -.346E-04
   0.186E+02 0.361E+02 0.185E+02   -.188E+02 -.369E+02 -.189E+02   0.935E+00 0.652E+00 0.541E+00   -.142E-02 0.334E-02 0.107E-02
   -.206E+02 0.362E+02 0.186E+02   0.211E+02 -.371E+02 -.190E+02   -.668E+00 0.662E+00 0.550E+00   -.436E-02 0.418E-02 0.196E-03
   -.116E+02 0.673E+01 0.489E+01   0.113E+02 -.655E+01 -.494E+01   -.112E+00 0.624E-01 0.529E-01   -.172E-02 0.694E-03 0.208E-04
   0.745E+01 -.418E-01 0.381E+01   -.753E+01 0.380E-01 -.377E+01   0.881E-02 -.135E+00 -.728E-01   0.294E-02 -.697E-03 0.383E-03
   0.418E+02 -.194E+00 0.186E+02   -.428E+02 0.201E+00 -.190E+02   0.886E+00 0.221E+00 0.547E+00   0.370E-02 0.114E-02 -.127E-03
   -.322E-01 0.237E+00 0.291E+03   0.308E-01 -.201E+00 -.346E+03   0.314E-02 0.152E-01 0.713E+01   -.223E-02 -.254E-02 0.760E-02
   -.418E+02 0.300E-02 0.186E+02   0.428E+02 -.379E-01 -.190E+02   -.885E+00 0.225E+00 0.546E+00   -.415E-02 -.694E-03 -.352E-03
   -.738E+01 -.860E-02 0.381E+01   0.746E+01 -.649E-04 -.377E+01   -.106E-01 -.137E+00 -.709E-01   -.125E-02 0.487E-03 0.604E-03
   0.111E+02 -.646E+01 0.480E+01   -.113E+02 0.657E+01 -.494E+01   0.106E-01 -.672E-02 0.112E+00   0.364E-02 -.270E-02 -.314E-03
   0.209E+02 -.362E+02 0.186E+02   -.214E+02 0.371E+02 -.190E+02   0.248E+00 -.876E+00 0.546E+00   0.641E-03 -.416E-02 0.262E-03
   -.209E+02 -.362E+02 0.186E+02   0.214E+02 0.371E+02 -.190E+02   -.247E+00 -.880E+00 0.547E+00   -.204E-02 0.255E-04 0.304E-03
   -.111E+02 -.642E+01 0.480E+01   0.113E+02 0.653E+01 -.494E+01   -.115E-01 -.636E-02 0.112E+00   -.367E-02 -.877E-03 -.148E-04
   0.750E-02 -.149E+01 0.282E+01   -.829E-02 0.157E+01 -.278E+01   -.317E-04 -.848E-01 -.150E-01   0.792E-03 -.248E-02 0.629E-03
   0.372E+01 -.642E+01 0.381E+01   -.375E+01 0.650E+01 -.377E+01   0.124E+00 0.613E-01 -.714E-01   0.159E-02 -.340E-02 0.544E-03
   0.580E-02 -.134E+02 0.489E+01   -.829E-02 0.131E+02 -.494E+01   0.270E-03 -.125E+00 0.525E-01   0.681E-03 -.300E-02 0.219E-03
   -.370E+01 -.639E+01 0.381E+01   0.374E+01 0.646E+01 -.377E+01   -.127E+00 0.586E-01 -.720E-01   -.187E-02 -.676E-03 0.857E-04
   -.131E+01 0.738E+00 0.282E+01   0.137E+01 -.778E+00 -.278E+01   -.735E-01 0.425E-01 -.146E-01   -.160E-02 0.208E-02 0.471E-03
   0.129E+01 0.711E+00 0.282E+01   -.135E+01 -.749E+00 -.278E+01   0.724E-01 0.448E-01 -.155E-01   0.154E-02 0.640E-03 0.705E-03
   0.455E-01 0.858E-02 0.250E+01   -.417E-01 -.112E-01 -.250E+01   0.267E-03 -.684E-03 -.102E-01   0.181E-02 0.461E-03 0.363E-03
   0.544E+01 0.421E+01 0.341E+01   -.527E+01 -.443E+01 -.338E+01   -.682E-01 0.739E-02 -.241E-01   0.117E-02 0.259E-02 -.792E-04
   0.526E+01 0.171E+02 0.687E+01   -.502E+01 -.170E+02 -.650E+01   -.152E+00 0.169E+00 -.120E+00   -.107E-02 0.228E-02 0.334E-03
   -.594E+01 0.170E+02 0.688E+01   0.568E+01 -.169E+02 -.650E+01   0.663E-01 0.161E+00 -.127E+00   -.140E-02 0.369E-02 0.279E-03
   -.526E+01 0.406E+01 0.341E+01   0.510E+01 -.428E+01 -.338E+01   0.710E-01 0.282E-02 -.241E-01   -.901E-03 0.205E-02 0.492E-03
   0.628E+01 0.253E+01 0.341E+01   -.638E+01 -.228E+01 -.338E+01   -.381E-01 -.642E-01 -.240E-01   0.457E-02 -.292E-03 0.274E-03
   0.291E+02 0.154E+02 0.126E+02   -.296E+02 -.154E+02 -.131E+02   -.200E+00 -.120E+00 0.142E+00   0.243E-02 -.114E-02 0.279E-03
   0.837E+00 0.887E+02 0.586E+02   -.101E+01 -.932E+02 -.663E+02   -.348E-01 -.570E+00 0.338E+01   0.232E-02 0.606E-02 0.135E-02
   -.282E+02 0.164E+02 0.126E+02   0.285E+02 -.165E+02 -.131E+02   0.151E+00 -.950E-01 0.149E+00   -.368E-02 0.176E-02 0.462E-04
   -.614E+01 0.256E+01 0.341E+01   0.625E+01 -.230E+01 -.338E+01   0.308E-01 -.642E-01 -.240E-01   -.171E-02 0.247E-03 0.542E-03
   0.179E+02 -.338E+01 0.688E+01   -.177E+02 0.356E+01 -.650E+01   0.108E+00 -.139E+00 -.119E+00   0.315E-02 -.172E-02 -.135E-03
   0.759E+02 -.439E+02 0.587E+02   -.798E+02 0.461E+02 -.663E+02   -.575E+00 0.325E+00 0.327E+01   0.355E-02 -.168E-02 0.309E-02
   -.760E+02 -.438E+02 0.587E+02   0.798E+02 0.460E+02 -.663E+02   0.569E+00 0.327E+00 0.329E+01   -.370E-02 -.514E-02 0.743E-03
   -.179E+02 -.330E+01 0.687E+01   0.177E+02 0.348E+01 -.650E+01   -.106E+00 -.137E+00 -.120E+00   -.206E-02 -.972E-03 0.699E-04
   0.271E-01 -.623E+00 0.293E+01   -.233E-01 0.858E+00 -.290E+01   -.201E-03 -.154E+00 -.519E-01   0.940E-03 -.252E-02 0.387E-03
   0.118E+02 -.138E+02 0.687E+01   -.119E+02 0.136E+02 -.650E+01   0.170E+00 -.218E-01 -.120E+00   0.377E-02 -.321E-02 0.389E-03
   -.401E-02 -.327E+02 0.126E+02   0.433E-02 0.330E+02 -.131E+02   0.727E-03 0.185E+00 0.143E+00   -.118E-02 -.242E-02 0.145E-04
   -.118E+02 -.138E+02 0.688E+01   0.119E+02 0.135E+02 -.650E+01   -.171E+00 -.237E-01 -.121E+00   -.194E-02 -.956E-03 0.186E-03
   -.384E+01 -.222E+01 0.282E+01   0.378E+01 0.218E+01 -.286E+01   -.194E-01 -.110E-01 0.129E-01   -.285E-02 -.127E-02 0.610E-03
   0.384E+01 -.224E+01 0.282E+01   -.379E+01 0.220E+01 -.286E+01   0.192E-01 -.101E-01 0.127E-01   0.310E-02 -.259E-02 0.310E-03
   0.884E+00 -.663E+01 0.341E+01   -.116E+01 0.660E+01 -.338E+01   0.390E-01 0.602E-01 -.236E-01   0.162E-02 -.362E-02 0.535E-03
   -.856E+00 -.660E+01 0.341E+01   0.113E+01 0.657E+01 -.338E+01   -.393E-01 0.601E-01 -.236E-01   0.111E-03 -.170E-02 0.122E-03
   -.549E+00 0.347E+00 0.294E+01   0.754E+00 -.464E+00 -.290E+01   -.135E+00 0.688E-01 -.524E-01   -.231E-02 0.183E-02 0.158E-03
   -.216E-01 0.439E+01 0.283E+01   0.217E-01 -.433E+01 -.286E+01   -.192E-02 0.322E-01 0.125E-01   -.141E-02 0.357E-02 0.395E-03
   0.541E+00 0.277E+00 0.293E+01   -.747E+00 -.396E+00 -.290E+01   0.133E+00 0.785E-01 -.518E-01   0.159E-02 -.846E-04 0.555E-03
   -.734E-01 0.333E+00 -.722E+03   0.545E-01 -.206E+00 0.846E+03   0.310E-01 -.215E+00 -.638E+02   -.716E-02 -.214E-02 -.161E-01
 -----------------------------------------------------------------------------------------------
   -.315E-01 0.134E+00 0.440E+02   -.355E-13 -.221E-13 -.455E-12   0.383E-01 -.131E+00 -.440E+02   -.680E-02 -.342E-02 0.929E-02
 
 
 POSITION                                       TOTAL-FORCE (eV/Angst)
 -----------------------------------------------------------------------------------
      0.00000      0.00000      8.35995        -0.051267     -0.028446      0.009337
      2.46000      0.00000      8.35995         0.037759     -0.030784      0.009577
      4.92000      0.00000      8.35995        -0.154374     -0.010907     -0.026410
      7.38000      0.00000      8.35995         0.009558     -0.183875     -0.026084
      9.84000      0.00000      8.35995         0.158372      0.012897     -0.026896
      1.23000      2.13042      8.35995         0.001154      0.056490      0.009295
      3.69000      2.13042      8.35995         0.380902      0.239996     -0.000875
      6.14000      2.13042      8.35995         0.688666     -0.220782      0.171240
      8.61000      2.13042      8.35995        -0.122235     -0.206911      0.168209
     11.07000      2.13042      8.35995        -0.429342      0.250328      0.000333
      2.46000      4.26084      8.35995        -0.071761     -0.139950     -0.025967
      4.92000      4.26084      8.35995        -0.113048      0.230158      0.163874
      7.38000      4.26084      8.35995        -0.000521      0.048200    -48.176823
      9.84000      4.26084      8.35995         0.127076      0.188867      0.165322
     12.30000      4.26084      8.35995         0.064966     -0.144976     -0.026016
      3.69000      6.39127      8.35995        -0.177625      0.103284     -0.026842
      6.15000      6.39127      8.35995        -0.228250      0.017275      0.163329
      8.61000      6.39127      8.35995         0.227379      0.014069      0.163842
     11.07000      6.39127      8.35995         0.177992      0.104298     -0.027011
     13.53000      6.39127      8.35995        -0.000033     -0.010908      0.017842
      4.92000      8.52169      8.35995         0.092469      0.130543     -0.025839
      7.38000      8.52169      8.35995        -0.001540     -0.498295     -0.000104
      9.84000      8.52169      8.35995        -0.090060      0.129392     -0.026021
     12.30000      8.52169      8.35995        -0.015425      0.005112      0.017855
     14.76000      8.52169      8.35995         0.011804      0.006955      0.017561
      1.23000      0.71014      8.36012         0.005829     -0.002864     -0.006071
      3.69000      0.71014      8.36012         0.102252     -0.201983      0.009967
      6.15000      0.71014      8.36012         0.089980      0.257609      0.249808
      8.61000      0.71014      8.36012        -0.196573      0.244136      0.257568
     11.07000      0.71014      8.36012        -0.094190     -0.219334      0.010105
      2.46000      2.84056      8.36012        -0.139238      0.183750      0.009987
      4.92000      2.84056      8.36012        -0.654038     -0.197033     -0.351603
      7.38000      2.84056      8.36012        -0.202548     -5.110345     -4.301011
      9.84000      2.84056      8.36012         0.440763     -0.256218     -0.356989
     12.30000      2.84056      8.36012         0.137165      0.192562      0.010122
      3.69000      4.97099      8.36012         0.318356      0.039334      0.258209
      6.15000      4.97099      8.36012        -4.428203      2.533078     -4.366921
      8.61000      4.97099      8.36012         4.408046      2.540136     -4.358945
     11.07000      4.97099      8.36012        -0.311435      0.042206      0.256893
     13.53000      4.97099      8.36012         0.004563      0.079759     -0.022370
      4.92000      7.10141      8.36012         0.119184     -0.292292      0.256837
      7.38000      7.10141      8.36012        -0.000127      0.511874     -0.353716
      9.84000      7.10141      8.36012        -0.117990     -0.293115      0.257590
     12.30000      7.10141      8.36012        -0.080397     -0.045812     -0.026549
     14.76000      7.10141      8.36012         0.079127     -0.046226     -0.026489
      6.15000      9.23183      8.36012        -0.238698      0.025103      0.009986
      8.61000      9.23183      8.36012         0.238063      0.028311      0.010101
     11.07000      9.23183      8.36012         0.067249     -0.046180     -0.021395
     13.53000      9.23183      8.36012        -0.003206      0.101860     -0.025716
     15.99000      9.23183      8.36012        -0.071473     -0.040361     -0.021972
      7.38000      4.26084      9.36012         0.004922     -0.089988     59.979841
 -----------------------------------------------------------------------------------
    total drift:                               -0.000062      0.000210     -0.000222


--------------------------------------------------------------------------------------------------------



  FREE ENERGIE OF THE ION-ELECTRON SYSTEM (eV)
  ---------------------------------------------------
  free  energy   TOTEN  =      -454.33663253 eV

  energy  without entropy=     -454.33651761  energy(sigma->0) =     -454.33657507
 


--------------------------------------------------------------------------------------------------------


    POTLOK:  cpu time    0.1779: real time    0.1779


--------------------------------------------------------------------------------------------------------


 stress matrix after NEB project (eV)
     15.61740     -0.12730      0.00449
     -0.12730     15.49261     -0.08927
      0.00449     -0.08927     52.16489
  FORCES: max atom, RMS    59.979908   10.898731
  FORCE total and by dimension   77.832510   59.979841
  Stress total and by dimension   56.614028   52.164886
     LOOP+:  cpu time   42.3211: real time   42.3697
    4ORBIT:  cpu time    0.0000: real time    0.0000

 total amount of memory used by VASP MPI-rank0    90113. kBytes
=======================================================================

   base      :      30000. kBytes
   nonl-proj :       8674. kBytes
   fftplans  :      26248. kBytes
   grid      :      14579. kBytes
   one-center:         21. kBytes
   wavefun   :      10591. kBytes
 
  
  
 General timing and accounting informations for this job:
 ========================================================
  
                  Total CPU time used (sec):       49.982
                            User time (sec):       46.835
                          System time (sec):        3.148
                         Elapsed time (sec):       50.071
  
                   Maximum memory used (kb):      369844.
                   Average memory used (kb):           0.
  
                          Minor page faults:       102938
                          Major page faults:            0
                 Voluntary context switches:         1292
