  51  51   0   0
  0.5138078E+02  0.1230000E-08  0.1230000E-08  0.2000000E-08  0.5000000E-15
  1.000000000000000E-004
  CAR 
                                         
      5.95343592    -33.53500109  301     -3.01771741      1.00000000
    -33.535  0.0000E+00  0.0000E+00
    -33.403  0.0000E+00  0.0000E+00
    -33.272  0.0000E+00  0.0000E+00
    -33.140  0.0000E+00  0.0000E+00
    -33.008  0.0000E+00  0.0000E+00
    -32.877  0.0000E+00  0.0000E+00
    -32.745  0.0000E+00  0.0000E+00
    -32.614  0.0000E+00  0.0000E+00
    -32.482  0.0000E+00  0.0000E+00
    -32.350  0.0000E+00  0.0000E+00
    -32.219  0.0000E+00  0.0000E+00
    -32.087  0.0000E+00  0.0000E+00
    -31.955  0.8392E-08  0.1105E-08
    -31.824  0.1350E+00  0.1776E-01
    -31.692  0.1372E+02  0.1824E+01
    -31.561  0.1339E+01  0.2000E+01
    -31.429  0.2936E-05  0.2000E+01
    -31.297  0.0000E+00  0.2000E+01
    -31.166  0.0000E+00  0.2000E+01
    -31.034  0.0000E+00  0.2000E+01
    -30.902  0.0000E+00  0.2000E+01
    -30.771  0.0000E+00  0.2000E+01
    -30.639  0.0000E+00  0.2000E+01
    -30.508  0.0000E+00  0.2000E+01
    -30.376  0.0000E+00  0.2000E+01
    -30.244  0.0000E+00  0.2000E+01
    -30.113  0.0000E+00  0.2000E+01
    -29.981  0.0000E+00  0.2000E+01
    -29.849  0.0000E+00  0.2000E+01
    -29.718  0.0000E+00  0.2000E+01
    -29.586  0.0000E+00  0.2000E+01
    -29.455  0.0000E+00  0.2000E+01
    -29.323  0.0000E+00  0.2000E+01
    -29.191  0.0000E+00  0.2000E+01
    -29.060  0.0000E+00  0.2000E+01
    -28.928  0.0000E+00  0.2000E+01
    -28.796  0.0000E+00  0.2000E+01
    -28.665  0.0000E+00  0.2000E+01
    -28.533  0.0000E+00  0.2000E+01
    -28.402  0.0000E+00  0.2000E+01
    -28.270  0.0000E+00  0.2000E+01
    -28.138  0.0000E+00  0.2000E+01
    -28.007  0.0000E+00  0.2000E+01
    -27.875  0.0000E+00  0.2000E+01
    -27.743  0.0000E+00  0.2000E+01
    -27.612  0.0000E+00  0.2000E+01
    -27.480  0.0000E+00  0.2000E+01
    -27.348  0.0000E+00  0.2000E+01
    -27.217  0.0000E+00  0.2000E+01
    -27.085  0.0000E+00  0.2000E+01
    -26.954  0.0000E+00  0.2000E+01
    -26.822  0.0000E+00  0.2000E+01
    -26.690  0.0000E+00  0.2000E+01
    -26.559  0.0000E+00  0.2000E+01
    -26.427  0.0000E+00  0.2000E+01
    -26.295  0.0000E+00  0.2000E+01
    -26.164  0.0000E+00  0.2000E+01
    -26.032  0.0000E+00  0.2000E+01
    -25.901  0.0000E+00  0.2000E+01
    -25.769  0.0000E+00  0.2000E+01
    -25.637  0.0000E+00  0.2000E+01
    -25.506  0.0000E+00  0.2000E+01
    -25.374  0.0000E+00  0.2000E+01
    -25.242  0.0000E+00  0.2000E+01
    -25.111  0.0000E+00  0.2000E+01
    -24.979  0.0000E+00  0.2000E+01
    -24.848  0.0000E+00  0.2000E+01
    -24.716  0.0000E+00  0.2000E+01
    -24.584  0.0000E+00  0.2000E+01
    -24.453  0.0000E+00  0.2000E+01
    -24.321  0.0000E+00  0.2000E+01
    -24.189  0.0000E+00  0.2000E+01
    -24.058  0.0000E+00  0.2000E+01
    -23.926  0.0000E+00  0.2000E+01
    -23.795  0.0000E+00  0.2000E+01
    -23.663  0.0000E+00  0.2000E+01
    -23.531  0.0000E+00  0.2000E+01
    -23.400  0.0000E+00  0.2000E+01
    -23.268  0.0000E+00  0.2000E+01
    -23.136  0.0000E+00  0.2000E+01
    -23.005  0.0000E+00  0.2000E+01
    -22.873  0.0000E+00  0.2000E+01
    -22.741  0.0000E+00  0.2000E+01
    -22.610  0.0000E+00  0.2000E+01
    -22.478  0.4072E-08  0.2000E+01
    -22.347  0.2804E-01  0.2004E+01
    -22.215  0.3930E+01  0.2521E+01
    -22.083  0.9491E+01  0.3770E+01
    -21.952  0.5032E+01  0.4433E+01
    -21.820  0.1042E+02  0.5804E+01
    -21.688  0.5429E+01  0.6519E+01
    -21.557  0.8098E+01  0.7585E+01
    -21.425  0.1217E+02  0.9187E+01
    -21.294  0.6170E+01  0.9999E+01
    -21.162  0.3353E+01  0.1044E+02
    -21.030  0.8997E+01  0.1162E+02
    -20.899  0.1051E+02  0.1301E+02
    -20.767  0.1056E+02  0.1440E+02
    -20.635  0.8753E+01  0.1555E+02
    -20.504  0.1560E+00  0.1557E+02
    -20.372  0.1269E+02  0.1724E+02
    -20.241  0.4327E+01  0.1781E+02
    -20.109  0.1827E+02  0.2021E+02
    -19.977  0.1753E+01  0.2045E+02
    -19.846  0.3223E+01  0.2087E+02
    -19.714  0.1350E+02  0.2265E+02
    -19.582  0.8797E+01  0.2380E+02
    -19.451  0.6528E+01  0.2466E+02
    -19.319  0.6087E+01  0.2547E+02
    -19.188  0.1453E+02  0.2738E+02
    -19.056  0.7095E+01  0.2831E+02
    -18.924  0.5264E+01  0.2900E+02
    -18.793  0.5302E+01  0.2970E+02
    -18.661  0.4614E+01  0.3031E+02
    -18.529  0.1439E+02  0.3220E+02
    -18.398  0.1107E+02  0.3366E+02
    -18.266  0.9224E+01  0.3487E+02
    -18.135  0.3948E+01  0.3539E+02
    -18.003  0.1604E+02  0.3751E+02
    -17.871  0.4770E+01  0.3813E+02
    -17.740  0.3921E+01  0.3865E+02
    -17.608  0.4799E+01  0.3928E+02
    -17.476  0.1623E+02  0.4142E+02
    -17.345  0.4147E+01  0.4196E+02
    -17.213  0.2169E+02  0.4482E+02
    -17.081  0.6930E+01  0.4573E+02
    -16.950  0.3698E+01  0.4622E+02
    -16.818  0.8430E+01  0.4733E+02
    -16.687  0.3914E+01  0.4784E+02
    -16.555  0.9234E+01  0.4906E+02
    -16.423  0.8745E+01  0.5021E+02
    -16.292  0.3218E+01  0.5063E+02
    -16.160  0.8823E+01  0.5179E+02
    -16.028  0.5895E+01  0.5257E+02
    -15.897  0.1330E+02  0.5432E+02
    -15.765  0.1230E+02  0.5594E+02
    -15.634  0.1987E+01  0.5620E+02
    -15.502  0.4060E+01  0.5673E+02
    -15.370  0.3075E+01  0.5714E+02
    -15.239  0.9864E+01  0.5844E+02
    -15.107  0.2153E+02  0.6127E+02
    -14.975  0.5368E+01  0.6198E+02
    -14.844  0.1116E+02  0.6345E+02
    -14.712  0.1090E+02  0.6488E+02
    -14.581  0.6479E+01  0.6573E+02
    -14.449  0.1430E+02  0.6762E+02
    -14.317  0.6289E+01  0.6844E+02
    -14.186  0.7236E+00  0.6854E+02
    -14.054  0.4347E+01  0.6911E+02
    -13.922  0.8941E+01  0.7029E+02
    -13.791  0.1580E+02  0.7237E+02
    -13.659  0.1969E+02  0.7496E+02
    -13.528  0.1755E+01  0.7519E+02
    -13.396  0.2760E+01  0.7555E+02
    -13.264  0.2825E+00  0.7559E+02
    -13.133  0.1064E+02  0.7699E+02
    -13.001  0.1382E+02  0.7881E+02
    -12.869  0.2060E+02  0.8152E+02
    -12.738  0.1945E+01  0.8178E+02
    -12.606  0.3407E+01  0.8223E+02
    -12.475  0.1847E+02  0.8466E+02
    -12.343  0.1099E+02  0.8610E+02
    -12.211  0.3894E+01  0.8662E+02
    -12.080  0.2442E+01  0.8694E+02
    -11.948  0.1293E+02  0.8864E+02
    -11.816  0.2890E+01  0.8902E+02
    -11.685  0.1485E+02  0.9098E+02
    -11.553  0.1868E+02  0.9343E+02
    -11.421  0.1379E+02  0.9525E+02
    -11.290  0.8147E+01  0.9632E+02
    -11.158  0.5851E+01  0.9709E+02
    -11.027  0.8572E+01  0.9822E+02
    -10.895  0.1114E+02  0.9969E+02
    -10.763  0.1854E+02  0.1021E+03
    -10.632  0.1684E+01  0.1023E+03
    -10.500  0.2018E+02  0.1050E+03
    -10.368  0.4543E+01  0.1056E+03
    -10.237  0.2206E+02  0.1085E+03
    -10.105  0.2679E+02  0.1120E+03
     -9.974  0.1960E+02  0.1146E+03
     -9.842  0.1280E+02  0.1163E+03
     -9.710  0.1854E+02  0.1187E+03
     -9.579  0.2579E+02  0.1221E+03
     -9.447  0.2292E+02  0.1251E+03
     -9.315  0.2581E+02  0.1285E+03
     -9.184  0.2413E+02  0.1317E+03
     -9.052  0.2815E+02  0.1354E+03
     -8.921  0.2010E+02  0.1381E+03
     -8.789  0.1971E+02  0.1407E+03
     -8.657  0.2076E+02  0.1434E+03
     -8.526  0.1905E+02  0.1459E+03
     -8.394  0.1603E+02  0.1480E+03
     -8.262  0.1561E+02  0.1501E+03
     -8.131  0.1458E+02  0.1520E+03
     -7.999  0.2956E+02  0.1559E+03
     -7.868  0.1631E+02  0.1580E+03
     -7.736  0.1805E+02  0.1604E+03
     -7.604  0.7176E+01  0.1613E+03
     -7.473  0.3263E+01  0.1618E+03
     -7.341  0.1393E+02  0.1636E+03
     -7.209  0.3324E+02  0.1680E+03
     -7.078  0.1831E+02  0.1704E+03
     -6.946  0.3093E+01  0.1708E+03
     -6.814  0.2042E+02  0.1735E+03
     -6.683  0.1129E+02  0.1750E+03
     -6.551  0.1687E+02  0.1772E+03
     -6.420  0.7563E+01  0.1782E+03
     -6.288  0.1170E+02  0.1797E+03
     -6.156  0.1543E+02  0.1818E+03
     -6.025  0.1442E+02  0.1837E+03
     -5.893  0.1834E+02  0.1861E+03
     -5.761  0.8832E+01  0.1872E+03
     -5.630  0.1375E+02  0.1890E+03
     -5.498  0.4257E+01  0.1896E+03
     -5.367  0.7256E+01  0.1906E+03
     -5.235  0.9396E+01  0.1918E+03
     -5.103  0.1032E+02  0.1932E+03
     -4.972  0.1665E+02  0.1953E+03
     -4.840  0.1840E+02  0.1978E+03
     -4.708  0.3230E+01  0.1982E+03
     -4.577  0.1918E+00  0.1982E+03
     -4.445  0.5369E-05  0.1982E+03
     -4.314  0.1615E+01  0.1984E+03
     -4.182  0.1714E+02  0.2007E+03
     -4.050  0.6561E+01  0.2016E+03
     -3.919  0.3817E-02  0.2016E+03
     -3.787  0.2228E+00  0.2016E+03
     -3.655  0.3109E+01  0.2020E+03
     -3.524  0.1540E+00  0.2020E+03
     -3.392  0.3786E+01  0.2025E+03
     -3.261  0.1224E+02  0.2041E+03
     -3.129  0.1016E+02  0.2055E+03
     -2.997  0.4112E+01  0.2060E+03
     -2.866  0.1958E+01  0.2063E+03
     -2.734  0.9602E+01  0.2075E+03
     -2.602  0.2394E+00  0.2076E+03
     -2.471  0.3164E-01  0.2076E+03
     -2.339  0.3060E+01  0.2080E+03
     -2.208  0.2589E+01  0.2083E+03
     -2.076  0.1072E+01  0.2084E+03
     -1.944  0.4556E-04  0.2084E+03
     -1.813  0.2020E-08  0.2084E+03
     -1.681  0.5753E-01  0.2085E+03
     -1.549  0.8918E+01  0.2096E+03
     -1.418  0.1135E+02  0.2111E+03
     -1.286  0.4999E+01  0.2118E+03
     -1.154  0.5062E-03  0.2118E+03
     -1.023  0.6413E+00  0.2119E+03
     -0.891  0.8791E+01  0.2130E+03
     -0.760  0.2446E+02  0.2162E+03
     -0.628  0.1872E+02  0.2187E+03
     -0.496  0.5918E+01  0.2195E+03
     -0.365  0.5577E+00  0.2196E+03
     -0.233  0.3644E+01  0.2200E+03
     -0.101  0.1102E+02  0.2215E+03
      0.030  0.1080E+02  0.2229E+03
      0.162  0.1586E+01  0.2231E+03
      0.293  0.1369E+02  0.2249E+03
      0.425  0.9349E+01  0.2261E+03
      0.557  0.3372E+01  0.2266E+03
      0.688  0.8535E+01  0.2277E+03
      0.820  0.1910E+02  0.2302E+03
      0.952  0.5981E+01  0.2310E+03
      1.083  0.9880E+01  0.2323E+03
      1.215  0.1643E+02  0.2345E+03
      1.346  0.7042E+01  0.2354E+03
      1.478  0.1502E+02  0.2374E+03
      1.610  0.2295E+02  0.2404E+03
      1.741  0.1593E+02  0.2425E+03
      1.873  0.2760E+02  0.2461E+03
      2.005  0.8847E+01  0.2473E+03
      2.136  0.1555E+02  0.2493E+03
      2.268  0.2499E+02  0.2526E+03
      2.399  0.2896E+02  0.2564E+03
      2.531  0.1009E+02  0.2578E+03
      2.663  0.5888E+01  0.2586E+03
      2.794  0.9086E+01  0.2597E+03
      2.926  0.5382E+01  0.2605E+03
      3.058  0.8657E+01  0.2616E+03
      3.189  0.2679E+01  0.2619E+03
      3.321  0.5360E+01  0.2627E+03
      3.453  0.1075E+00  0.2627E+03
      3.584  0.1644E+01  0.2629E+03
      3.716  0.5091E+01  0.2636E+03
      3.847  0.1821E-01  0.2636E+03
      3.979  0.6485E-06  0.2636E+03
      4.111  0.2968E+00  0.2636E+03
      4.242  0.3050E+01  0.2640E+03
      4.374  0.3010E-01  0.2640E+03
      4.506  0.1880E-08  0.2640E+03
      4.637  0.0000E+00  0.2640E+03
      4.769  0.0000E+00  0.2640E+03
      4.900  0.0000E+00  0.2640E+03
      5.032  0.0000E+00  0.2640E+03
      5.164  0.0000E+00  0.2640E+03
      5.295  0.0000E+00  0.2640E+03
      5.427  0.0000E+00  0.2640E+03
      5.559  0.0000E+00  0.2640E+03
      5.690  0.0000E+00  0.2640E+03
      5.822  0.0000E+00  0.2640E+03
      5.953  0.0000E+00  0.2640E+03
