   14   14    1    1
  0.2620420E+02  0.6508548E-09  0.6508548E-09  0.1000000E-08  0.5000000E-15
  1.000000000000000E-004
  CAR 
 vasp                                    
     56     26     36
 
  0.0000000E+00  0.0000000E+00  0.0000000E+00  0.6944444E-02
    1      -20.803889   1.000000
    2      -17.507904   1.000000
    3      -17.507899   1.000000
    4      -17.507890   1.000000
    5      -17.507881   1.000000
    6      -17.507879   1.000000
    7      -17.507867   1.000000
    8      -11.419607   1.000000
    9      -11.419591   1.000000
   10      -11.419579   1.000000
   11      -11.419564   1.000000
   12      -11.419534   1.000000
   13      -11.419513   1.000000
   14       -9.131364   1.000000
   15       -8.747130   1.000000
   16       -8.747122   1.000000
   17       -8.747076   1.000000
   18       -8.747063   1.000000
   19       -8.747047   1.000000
   20       -8.747038   1.000000
   21       -5.294998   1.000000
   22       -5.294989   1.000000
   23       -5.294989   1.000000
   24       -5.294974   1.000000
   25       -5.294974   1.000000
   26       -5.294965   1.000000
   27       -4.478623   1.000000
   28       -4.478486   1.000000
   29        1.833831   0.000000
   30        2.554568   0.000000
   31        2.554584   0.000000
   32        2.554585   0.000000
   33        2.554587   0.000000
   34        2.554588   0.000000
   35        2.554591   0.000000
   36        3.522775   0.000000
 
  0.8333333E-01  0.0000000E+00  0.0000000E+00  0.4166667E-01
    1      -20.780487   1.000000
    2      -18.022032   1.000000
    3      -17.753527   1.000000
    4      -17.752422   1.000000
    5      -17.220779   1.000000
    6      -17.219369   1.000000
    7      -16.956709   1.000000
    8      -12.096056   1.000000
    9      -12.050619   1.000000
   10      -11.488977   1.000000
   11      -11.344276   1.000000
   12      -10.828263   1.000000
   13      -10.719353   1.000000
   14       -9.370650   1.000000
   15       -9.135690   1.000000
   16       -9.103047   1.000000
   17       -8.925357   1.000000
   18       -8.533670   1.000000
   19       -8.329742   1.000000
   20       -8.172849   1.000000
   21       -5.865159   1.000000
   22       -5.573487   1.000000
   23       -5.557844   1.000000
   24       -5.000332   1.000000
   25       -4.969796   1.000000
   26       -4.704800   1.000000
   27       -4.573141   1.000000
   28       -4.530514   1.000000
   29        1.786375   0.000000
   30        1.865680   0.000000
   31        2.048729   0.000000
   32        2.222817   0.000000
   33        2.837439   0.000000
   34        3.004892   0.000000
   35        3.360521   0.000000
   36        3.554508   0.000000
 
  0.1666667E+00  0.0000000E+00  0.0000000E+00  0.4166667E-01
    1      -20.710307   1.000000
    2      -18.496389   1.000000
    3      -17.955313   1.000000
    4      -17.953578   1.000000
    5      -16.892239   1.000000
    6      -16.889821   1.000000
    7      -16.373516   1.000000
    8      -12.742405   1.000000
    9      -12.682647   1.000000
   10      -11.592226   1.000000
   11      -11.249703   1.000000
   12      -10.372943   1.000000
   13      -10.001540   1.000000
   14       -9.973354   1.000000
   15       -9.492106   1.000000
   16       -9.018066   1.000000
   17       -8.978410   1.000000
   18       -8.324309   1.000000
   19       -7.889380   1.000000
   20       -7.701160   1.000000
   21       -6.403792   1.000000
   22       -5.802950   1.000000
   23       -5.781391   1.000000
   24       -4.846088   1.000000
   25       -4.686193   1.000000
   26       -4.682959   1.000000
   27       -4.602648   1.000000
   28       -4.114825   1.000000
   29        1.076627   0.000000
   30        1.525271   0.000000
   31        1.834700   0.000000
   32        1.961220   0.000000
   33        3.079275   0.000000
   34        3.363921   0.000000
   35        3.649690   0.000000
   36        4.187944   0.000000
 
  0.2500000E+00  0.2775558E-16  0.0000000E+00  0.4166667E-01
    1      -20.593459   1.000000
    2      -18.929061   1.000000
    3      -18.112609   1.000000
    4      -18.110769   1.000000
    5      -16.523868   1.000000
    6      -16.522622   1.000000
    7      -15.769578   1.000000
    8      -13.346834   1.000000
    9      -13.295675   1.000000
   10      -11.826300   1.000000
   11      -11.130957   1.000000
   12      -10.431643   1.000000
   13      -10.205070   1.000000
   14       -9.812034   1.000000
   15       -9.272408   1.000000
   16       -8.877079   1.000000
   17       -8.763857   1.000000
   18       -8.139817   1.000000
   19       -7.432415   1.000000
   20       -7.376961   1.000000
   21       -6.903434   1.000000
   22       -5.981385   1.000000
   23       -5.960474   1.000000
   24       -5.269781   1.000000
   25       -4.926340   1.000000
   26       -4.371877   1.000000
   27       -4.201893   1.000000
   28       -3.563222   1.000000
   29        0.461353   0.000000
   30        1.025997   0.000000
   31        1.389437   0.000000
   32        2.120536   0.000000
   33        3.289780   0.000000
   34        3.612965   0.000000
   35        5.015597   0.000000
   36        6.535997   0.000000
 
  0.3333333E+00  0.5551115E-16  0.0000000E+00  0.4166667E-01
    1      -20.430126   1.000000
    2      -19.318719   1.000000
    3      -18.225022   1.000000
    4      -18.223530   1.000000
    5      -16.126291   1.000000
    6      -16.118583   1.000000
    7      -15.187275   1.000000
    8      -13.872340   1.000000
    9      -13.868428   1.000000
   10      -12.285214   1.000000
   11      -10.987661   1.000000
   12      -10.631785   1.000000
   13      -10.283179   1.000000
   14      -10.092527   1.000000
   15       -8.680643   1.000000
   16       -8.539925   1.000000
   17       -8.341674   1.000000
   18       -7.996287   1.000000
   19       -7.358893   1.000000
   20       -7.235406   1.000000
   21       -6.967008   1.000000
   22       -6.108331   1.000000
   23       -6.091841   1.000000
   24       -5.806949   1.000000
   25       -5.246431   1.000000
   26       -4.088733   1.000000
   27       -3.782347   1.000000
   28       -3.126209   1.000000
   29        0.010663   0.000000
   30        0.599518   0.000000
   31        0.905486   0.000000
   32        2.343575   0.000000
   33        3.469684   0.000000
   34        3.745503   0.000000
   35        6.345163   0.000000
   36        6.368845   0.000000
 
  0.4166667E+00  0.0000000E+00  0.0000000E+00  0.4166667E-01
    1      -20.220569   1.000000
    2      -19.664337   1.000000
    3      -18.292336   1.000000
    4      -18.291523   1.000000
    5      -15.731320   1.000000
    6      -15.682450   1.000000
    7      -14.911625   1.000000
    8      -14.377013   1.000000
    9      -14.026268   1.000000
   10      -12.895957   1.000000
   11      -10.822530   1.000000
   12      -10.627574   1.000000
   13      -10.451871   1.000000
   14      -10.328531   1.000000
   15       -8.429051   1.000000
   16       -7.904177   1.000000
   17       -7.892330   1.000000
   18       -7.812988   1.000000
   19       -7.766655   1.000000
   20       -7.288373   1.000000
   21       -6.502244   1.000000
   22       -6.428010   1.000000
   23       -6.181989   1.000000
   24       -6.173327   1.000000
   25       -5.626674   1.000000
   26       -3.883317   1.000000
   27       -3.374579   1.000000
   28       -2.930279   1.000000
   29       -0.155698   0.000000
   30        0.304079   0.000000
   31        0.422580   0.000000
   32        2.630388   0.000000
   33        3.394692   0.000000
   34        3.619603   0.000000
   35        3.776384   0.000000
   36        6.147347   0.000000
 
  0.5000000E+00  0.5551115E-16  0.0000000E+00  0.2083333E-01
    1      -19.965160   1.000000
    2      -19.965149   1.000000
    3      -18.314498   1.000000
    4      -18.314487   1.000000
    5      -15.504137   1.000000
    6      -15.236188   1.000000
    7      -15.236159   1.000000
    8      -14.641124   1.000000
    9      -13.536140   1.000000
   10      -13.536114   1.000000
   11      -10.640181   1.000000
   12      -10.640136   1.000000
   13      -10.512447   1.000000
   14      -10.512435   1.000000
   15       -8.124012   1.000000
   16       -8.124002   1.000000
   17       -7.872950   1.000000
   18       -7.520607   1.000000
   19       -7.520600   1.000000
   20       -7.103687   1.000000
   21       -7.103658   1.000000
   22       -6.203684   1.000000
   23       -6.203679   1.000000
   24       -6.051055   1.000000
   25       -6.051049   1.000000
   26       -3.806212   1.000000
   27       -3.047892   1.000000
   28       -3.047880   1.000000
   29        0.020296   0.000000
   30        0.020307   0.000000
   31        0.196242   0.000000
   32        2.980775   0.000000
   33        2.980790   0.000000
   34        3.727956   0.000000
   35        3.727960   0.000000
   36        6.076869   0.000000
 
  0.8333333E-01  0.8333333E-01  0.0000000E+00  0.4166667E-01
    1      -20.733692   1.000000
    2      -18.247734   1.000000
    3      -18.246941   1.000000
    4      -17.442226   1.000000
    5      -17.439841   1.000000
    6      -16.652929   1.000000
    7      -16.651954   1.000000
    8      -12.726917   1.000000
    9      -12.127952   1.000000
   10      -11.980342   1.000000
   11      -10.989216   1.000000
   12      -10.614518   1.000000
   13      -10.151285   1.000000
   14       -9.781311   1.000000
   15       -9.494201   1.000000
   16       -9.046270   1.000000
   17       -8.867568   1.000000
   18       -8.450777   1.000000
   19       -8.023330   1.000000
   20       -7.788992   1.000000
   21       -6.124003   1.000000
   22       -6.116345   1.000000
   23       -5.247787   1.000000
   24       -5.205584   1.000000
   25       -4.758110   1.000000
   26       -4.631382   1.000000
   27       -4.423984   1.000000
   28       -4.364387   1.000000
   29        1.318021   0.000000
   30        1.478588   0.000000
   31        1.929374   0.000000
   32        2.275379   0.000000
   33        2.586522   0.000000
   34        3.617776   0.000000
   35        3.663258   0.000000
   36        3.810459   0.000000
 
  0.1666667E+00  0.8333333E-01  0.0000000E+00  0.4166667E-01
    1      -20.640179   1.000000
    2      -18.700692   1.000000
    3      -18.428779   1.000000
    4      -17.617244   1.000000
    5      -17.089303   1.000000
    6      -16.310534   1.000000
    7      -16.056075   1.000000
    8      -13.347502   1.000000
    9      -12.738053   1.000000
   10      -11.881300   1.000000
   11      -11.303550   1.000000
   12      -10.153086   1.000000
   13       -9.906416   1.000000
   14       -9.868077   1.000000
   15       -9.746591   1.000000
   16       -8.933315   1.000000
   17       -8.599735   1.000000
   18       -8.434441   1.000000
   19       -7.649540   1.000000
   20       -7.388727   1.000000
   21       -6.641384   1.000000
   22       -6.322102   1.000000
   23       -5.445608   1.000000
   24       -5.102798   1.000000
   25       -4.832480   1.000000
   26       -4.814132   1.000000
   27       -4.150054   1.000000
   28       -3.762091   1.000000
   29        0.790296   0.000000
   30        0.864982   0.000000
   31        2.056807   0.000000
   32        2.108633   0.000000
   33        2.476164   0.000000
   34        4.158664   0.000000
   35        4.499700   0.000000
   36        6.531107   0.000000
 
  0.2500000E+00  0.8333333E-01  0.0000000E+00  0.4166667E-01
    1      -20.500085   1.000000
    2      -19.111989   1.000000
    3      -18.564787   1.000000
    4      -17.751044   1.000000
    5      -16.696526   1.000000
    6      -15.943470   1.000000
    7      -15.444641   1.000000
    8      -13.932973   1.000000
    9      -13.305600   1.000000
   10      -11.829999   1.000000
   11      -11.752935   1.000000
   12      -10.481683   1.000000
   13      -10.082868   1.000000
   14       -9.627577   1.000000
   15       -9.111673   1.000000
   16       -8.764378   1.000000
   17       -8.351723   1.000000
   18       -8.173649   1.000000
   19       -7.449453   1.000000
   20       -7.118040   1.000000
   21       -6.976987   1.000000
   22       -6.479411   1.000000
   23       -5.592808   1.000000
   24       -5.569846   1.000000
   25       -5.126747   1.000000
   26       -4.394321   1.000000
   27       -3.918806   1.000000
   28       -3.202102   1.000000
   29        0.191402   0.000000
   30        0.484582   0.000000
   31        1.579918   0.000000
   32        2.248042   0.000000
   33        2.655272   0.000000
   34        3.961018   0.000000
   35        4.385719   0.000000
   36        6.485359   0.000000
 
  0.3333333E+00  0.8333333E-01  0.0000000E+00  0.4166667E-01
    1      -20.313648   1.000000
    2      -19.479722   1.000000
    3      -18.655474   1.000000
    4      -17.840741   1.000000
    5      -16.267093   1.000000
    6      -15.595964   1.000000
    7      -14.878415   1.000000
    8      -14.430850   1.000000
    9      -13.774687   1.000000
   10      -12.482112   1.000000
   11      -11.596602   1.000000
   12      -10.762064   1.000000
   13      -10.092692   1.000000
   14       -9.711954   1.000000
   15       -8.540696   1.000000
   16       -8.354944   1.000000
   17       -8.138823   1.000000
   18       -7.770945   1.000000
   19       -7.549067   1.000000
   20       -7.444798   1.000000
   21       -6.586340   1.000000
   22       -6.562336   1.000000
   23       -6.128058   1.000000
   24       -5.687835   1.000000
   25       -5.500977   1.000000
   26       -3.965075   1.000000
   27       -3.781255   1.000000
   28       -2.769933   1.000000
   29       -0.241223   0.000000
   30        0.242126   0.000000
   31        1.030622   0.000000
   32        2.502963   0.000000
   33        2.810938   0.000000
   34        3.648805   0.000000
   35        4.491414   0.000000
   36        6.425810   0.000000
 
  0.4166667E+00  0.8333333E-01  0.0000000E+00  0.4166667E-01
    1      -20.081165   1.000000
    2      -19.802995   1.000000
    3      -18.700694   1.000000
    4      -17.886009   1.000000
    5      -15.808585   1.000000
    6      -15.503756   1.000000
    7      -14.725930   1.000000
    8      -14.601513   1.000000
    9      -13.786397   1.000000
   10      -13.168582   1.000000
   11      -11.415641   1.000000
   12      -10.984983   1.000000
   13      -10.009529   1.000000
   14       -9.868099   1.000000
   15       -8.262366   1.000000
   16       -7.972136   1.000000
   17       -7.931363   1.000000
   18       -7.629878   1.000000
   19       -7.608623   1.000000
   20       -7.388686   1.000000
   21       -6.745552   1.000000
   22       -6.641384   1.000000
   23       -6.153319   1.000000
   24       -5.936846   1.000000
   25       -5.731610   1.000000
   26       -3.785066   1.000000
   27       -3.564449   1.000000
   28       -2.618244   1.000000
   29       -0.364380   0.000000
   30        0.197538   0.000000
   31        0.513497   0.000000
   32        2.821645   0.000000
   33        2.938575   0.000000
   34        3.203307   0.000000
   35        4.500087   0.000000
   36        6.610418   0.000000
 
  0.5000000E+00  0.8333333E-01  0.0000000E+00  0.4166667E-01
    1      -20.081148   1.000000
    2      -19.803061   1.000000
    3      -18.700402   1.000000
    4      -17.886614   1.000000
    5      -15.837239   1.000000
    6      -15.349450   1.000000
    7      -15.087694   1.000000
    8      -14.273047   1.000000
    9      -13.822289   1.000000
   10      -13.263299   1.000000
   11      -11.215589   1.000000
   12      -11.129723   1.000000
   13      -10.040268   1.000000
   14       -9.865299   1.000000
   15       -8.262786   1.000000
   16       -7.973624   1.000000
   17       -7.931068   1.000000
   18       -7.863346   1.000000
   19       -7.402210   1.000000
   20       -7.116613   1.000000
   21       -6.888510   1.000000
   22       -6.643739   1.000000
   23       -6.417049   1.000000
   24       -5.761571   1.000000
   25       -5.723807   1.000000
   26       -3.940013   1.000000
   27       -3.271158   1.000000
   28       -2.801390   1.000000
   29       -0.139235   0.000000
   30        0.122435   0.000000
   31        0.365528   0.000000
   32        2.821290   0.000000
   33        3.026613   0.000000
   34        3.203922   0.000000
   35        4.427646   0.000000
   36        6.109384   0.000000
 
 -0.4166667E+00  0.8333333E-01  0.0000000E+00  0.4166667E-01
    1      -20.313641   1.000000
    2      -19.479863   1.000000
    3      -18.654704   1.000000
    4      -17.842441   1.000000
    5      -16.270525   1.000000
    6      -15.516890   1.000000
    7      -15.090290   1.000000
    8      -14.225610   1.000000
    9      -13.771184   1.000000
   10      -12.711377   1.000000
   11      -11.141530   1.000000
   12      -11.009401   1.000000
   13      -10.207864   1.000000
   14       -9.673880   1.000000
   15       -8.540865   1.000000
   16       -8.427675   1.000000
   17       -8.080942   1.000000
   18       -7.816642   1.000000
   19       -7.548264   1.000000
   20       -7.009681   1.000000
   21       -6.923464   1.000000
   22       -6.593479   1.000000
   23       -6.214076   1.000000
   24       -5.665512   1.000000
   25       -5.399095   1.000000
   26       -4.210476   1.000000
   27       -3.206684   1.000000
   28       -3.164646   1.000000
   29       -0.006425   0.000000
   30        0.263976   0.000000
   31        0.709326   0.000000
   32        2.502836   0.000000
   33        3.056163   0.000000
   34        3.650359   0.000000
   35        4.299026   0.000000
   36        6.448460   0.000000
 
 -0.3333333E+00  0.8333333E-01  0.0000000E+00  0.4166667E-01
    1      -20.500087   1.000000
    2      -19.112264   1.000000
    3      -18.563702   1.000000
    4      -17.753530   1.000000
    5      -16.693935   1.000000
    6      -15.929246   1.000000
    7      -15.470756   1.000000
    8      -13.930136   1.000000
    9      -13.207115   1.000000
   10      -12.332906   1.000000
   11      -10.909501   1.000000
   12      -10.828311   1.000000
   13      -10.361450   1.000000
   14       -9.440889   1.000000
   15       -8.925286   1.000000
   16       -8.770783   1.000000
   17       -8.764703   1.000000
   18       -7.832147   1.000000
   19       -7.439724   1.000000
   20       -7.115904   1.000000
   21       -7.092017   1.000000
   22       -6.489612   1.000000
   23       -5.612085   1.000000
   24       -5.557844   1.000000
   25       -5.079791   1.000000
   26       -4.543958   1.000000
   27       -3.577680   1.000000
   28       -3.436335   1.000000
   29        0.203943   0.000000
   30        0.704377   0.000000
   31        1.174368   0.000000
   32        2.247969   0.000000
   33        3.004893   0.000000
   34        4.125860   0.000000
   35        5.551790   0.000000
   36        6.295529   0.000000
 
 -0.2500000E+00  0.8333333E-01  0.0000000E+00  0.4166667E-01
    1      -20.640178   1.000000
    2      -18.701150   1.000000
    3      -18.427665   1.000000
    4      -17.619996   1.000000
    5      -17.085977   1.000000
    6      -16.309605   1.000000
    7      -16.058999   1.000000
    8      -13.363635   1.000000
    9      -12.605768   1.000000
   10      -12.178150   1.000000
   11      -10.763780   1.000000
   12      -10.497073   1.000000
   13      -10.409388   1.000000
   14       -9.463441   1.000000
   15       -9.346255   1.000000
   16       -9.171212   1.000000
   17       -8.933234   1.000000
   18       -7.952173   1.000000
   19       -7.904924   1.000000
   20       -7.361472   1.000000
   21       -6.637399   1.000000
   22       -6.332654   1.000000
   23       -5.403344   1.000000
   24       -5.114934   1.000000
   25       -4.898681   1.000000
   26       -4.818894   1.000000
   27       -3.985166   1.000000
   28       -3.880012   1.000000
   29        0.680957   0.000000
   30        1.117777   0.000000
   31        1.709744   0.000000
   32        2.056785   0.000000
   33        2.850191   0.000000
   34        3.744392   0.000000
   35        3.915221   0.000000
   36        4.629941   0.000000
 
  0.1666667E+00  0.1666667E+00  0.0000000E+00  0.4166667E-01
    1      -20.523422   1.000000
    2      -18.860770   1.000000
    3      -18.860123   1.000000
    4      -17.243027   1.000000
    5      -17.239661   1.000000
    6      -15.724104   1.000000
    7      -15.701901   1.000000
    8      -13.952328   1.000000
    9      -12.740248   1.000000
   10      -12.495748   1.000000
   11      -11.344312   1.000000
   12      -10.796965   1.000000
   13       -9.729853   1.000000
   14       -9.509970   1.000000
   15       -9.112524   1.000000
   16       -8.847356   1.000000
   17       -8.792785   1.000000
   18       -7.873807   1.000000
   19       -7.649387   1.000000
   20       -7.009723   1.000000
   21       -6.827137   1.000000
   22       -6.821839   1.000000
   23       -5.523714   1.000000
   24       -5.062337   1.000000
   25       -5.047855   1.000000
   26       -4.989515   1.000000
   27       -3.701154   1.000000
   28       -3.372255   1.000000
   29        0.356526   0.000000
   30        0.448397   0.000000
   31        1.877315   0.000000
   32        2.216138   0.000000
   33        2.280120   0.000000
   34        4.086769   0.000000
   35        4.819960   0.000000
   36        6.594243   0.000000
 
  0.2500000E+00  0.1666667E+00  0.0000000E+00  0.4166667E-01
    1      -20.360217   1.000000
    2      -19.249569   1.000000
    3      -18.974913   1.000000
    4      -17.350146   1.000000
    5      -16.826336   1.000000
    6      -15.437985   1.000000
    7      -15.087675   1.000000
    8      -14.428008   1.000000
    9      -13.263315   1.000000
   10      -12.353144   1.000000
   11      -12.027678   1.000000
   12      -11.129723   1.000000
   13       -9.539868   1.000000
   14       -9.032775   1.000000
   15       -8.956880   1.000000
   16       -8.596635   1.000000
   17       -8.537797   1.000000
   18       -7.589466   1.000000
   19       -7.585583   1.000000
   20       -7.279930   1.000000
   21       -6.955580   1.000000
   22       -6.652320   1.000000
   23       -6.028896   1.000000
   24       -5.368304   1.000000
   25       -5.174898   1.000000
   26       -4.552468   1.000000
   27       -3.633615   1.000000
   28       -2.801389   1.000000
   29       -0.139236   0.000000
   30        0.177747   0.000000
   31        1.675882   0.000000
   32        2.030990   0.000000
   33        2.439214   0.000000
   34        5.130113   0.000000
   35        6.231773   0.000000
   36        6.861372   0.000000
 
  0.3333333E+00  0.1666667E+00  0.0000000E+00  0.4166667E-01
    1      -20.150839   1.000000
    2      -19.594973   1.000000
    3      -19.043386   1.000000
    4      -17.416979   1.000000
    5      -16.373528   1.000000
    6      -15.497699   1.000000
    7      -14.549945   1.000000
    8      -14.488001   1.000000
    9      -13.674288   1.000000
   10      -12.742389   1.000000
   11      -12.180090   1.000000
   12      -11.397019   1.000000
   13       -9.492116   1.000000
   14       -9.119126   1.000000
   15       -8.345684   1.000000
   16       -8.257980   1.000000
   17       -8.188138   1.000000
   18       -7.718014   1.000000
   19       -7.685769   1.000000
   20       -7.228095   1.000000
   21       -7.036982   1.000000
   22       -6.599965   1.000000
   23       -6.294969   1.000000
   24       -5.772058   1.000000
   25       -5.236627   1.000000
   26       -4.114825   1.000000
   27       -3.719494   1.000000
   28       -2.369018   1.000000
   29       -0.562775   0.000000
   30        0.199758   0.000000
   31        1.076627   0.000000
   32        2.166018   0.000000
   33        2.725989   0.000000
   34        3.489149   0.000000
   35        5.104745   0.000000
   36        6.560829   0.000000
 
  0.4166667E+00  0.1666667E+00  0.0000000E+00  0.4166667E-01
    1      -19.895651   1.000000
    2      -19.895588   1.000000
    3      -19.066100   1.000000
    4      -17.439837   1.000000
    5      -15.908971   1.000000
    6      -15.894099   1.000000
    7      -14.527325   1.000000
    8      -14.123611   1.000000
    9      -13.561762   1.000000
   10      -13.447090   1.000000
   11      -11.980346   1.000000
   12      -11.573613   1.000000
   13       -9.390348   1.000000
   14       -9.264132   1.000000
   15       -8.041815   1.000000
   16       -8.041212   1.000000
   17       -8.023326   1.000000
   18       -8.019843   1.000000
   19       -7.438385   1.000000
   20       -7.208634   1.000000
   21       -7.065073   1.000000
   22       -6.930665   1.000000
   23       -6.241883   1.000000
   24       -5.946484   1.000000
   25       -5.247787   1.000000
   26       -3.951953   1.000000
   27       -3.722457   1.000000
   28       -2.281904   1.000000
   29       -0.630380   0.000000
   30        0.426498   0.000000
   31        0.543654   0.000000
   32        2.275379   0.000000
   33        3.075769   0.000000
   34        3.076493   0.000000
   35        5.190891   0.000000
   36        6.351026   0.000000
 
  0.5000000E+00  0.1666667E+00  0.0000000E+00  0.4166667E-01
    1      -20.150821   1.000000
    2      -19.595136   1.000000
    3      -19.043058   1.000000
    4      -17.418464   1.000000
    5      -16.374659   1.000000
    6      -15.428179   1.000000
    7      -14.906514   1.000000
    8      -14.086397   1.000000
    9      -13.631163   1.000000
   10      -13.111556   1.000000
   11      -11.760751   1.000000
   12      -11.590483   1.000000
   13       -9.423864   1.000000
   14       -9.245612   1.000000
   15       -8.461595   1.000000
   16       -8.346013   1.000000
   17       -7.837725   1.000000
   18       -7.834446   1.000000
   19       -7.684473   1.000000
   20       -7.039862   1.000000
   21       -6.774112   1.000000
   22       -6.761301   1.000000
   23       -6.726353   1.000000
   24       -5.615543   1.000000
   25       -5.208940   1.000000
   26       -4.284875   1.000000
   27       -3.460224   1.000000
   28       -2.556210   1.000000
   29       -0.341903   0.000000
   30        0.176096   0.000000
   31        0.815034   0.000000
   32        2.344884   0.000000
   33        2.725691   0.000000
   34        3.490487   0.000000
   35        5.083718   0.000000
   36        6.360872   0.000000
 
 -0.4166667E+00  0.1666667E+00  0.0000000E+00  0.4166667E-01
    1      -20.360213   1.000000
    2      -19.249907   1.000000
    3      -18.974345   1.000000
    4      -17.352850   1.000000
    5      -16.823505   1.000000
    6      -15.315215   1.000000
    7      -15.266573   1.000000
    8      -14.361202   1.000000
    9      -13.082331   1.000000
   10      -12.822440   1.000000
   11      -11.535714   1.000000
   12      -11.326494   1.000000
   13       -9.581508   1.000000
   14       -9.063365   1.000000
   15       -8.980999   1.000000
   16       -8.596765   1.000000
   17       -8.474648   1.000000
   18       -7.710256   1.000000
   19       -7.311022   1.000000
   20       -7.277205   1.000000
   21       -6.960471   1.000000
   22       -6.798019   1.000000
   23       -6.076948   1.000000
   24       -5.312509   1.000000
   25       -5.122357   1.000000
   26       -4.667051   1.000000
   27       -3.441908   1.000000
   28       -2.957927   1.000000
   29        0.059379   0.000000
   30        0.099663   0.000000
   31        1.312446   0.000000
   32        2.354441   0.000000
   33        2.439078   0.000000
   34        4.941739   0.000000
   35        6.159468   0.000000
   36        6.976867   0.000000
 
  0.2500000E+00  0.2500000E+00  0.0000000E+00  0.4166667E-01
    1      -20.174068   1.000000
    2      -19.341750   1.000000
    3      -19.341483   1.000000
    4      -16.912742   1.000000
    5      -16.910680   1.000000
    6      -15.475593   1.000000
    7      -14.705323   1.000000
    8      -14.312243   1.000000
    9      -13.285729   1.000000
   10      -12.922945   1.000000
   11      -12.271099   1.000000
   12      -11.666488   1.000000
   13       -8.972110   1.000000
   14       -8.801440   1.000000
   15       -8.695960   1.000000
   16       -8.425900   1.000000
   17       -8.373757   1.000000
   18       -7.785662   1.000000
   19       -7.387889   1.000000
   20       -7.385664   1.000000
   21       -7.026991   1.000000
   22       -6.619031   1.000000
   23       -6.499627   1.000000
   24       -5.631421   1.000000
   25       -4.740715   1.000000
   26       -4.669192   1.000000
   27       -3.610628   1.000000
   28       -2.373146   1.000000
   29       -0.525518   0.000000
   30        0.196862   0.000000
   31        1.442066   0.000000
   32        1.691279   0.000000
   33        2.694022   0.000000
   34        3.840026   0.000000
   35        5.947810   0.000000
   36        6.494594   0.000000
 
  0.3333333E+00  0.2500000E+00  0.0000000E+00  0.4166667E-01
    1      -19.941967   1.000000
    2      -19.664240   1.000000
    3      -19.387643   1.000000
    4      -16.954798   1.000000
    5      -16.437450   1.000000
    6      -15.943467   1.000000
    7      -14.207512   1.000000
    8      -13.932977   1.000000
    9      -13.647579   1.000000
   10      -13.002868   1.000000
   11      -12.731182   1.000000
   12      -11.897067   1.000000
   13       -8.916439   1.000000
   14       -8.512430   1.000000
   15       -8.351723   1.000000
   16       -8.096444   1.000000
   17       -8.046178   1.000000
   18       -8.034259   1.000000
   19       -7.767641   1.000000
   20       -7.440531   1.000000
   21       -7.205594   1.000000
   22       -6.727669   1.000000
   23       -6.201898   1.000000
   24       -6.032028   1.000000
   25       -4.765424   1.000000
   26       -4.224813   1.000000
   27       -3.918806   1.000000
   28       -1.925123   1.000000
   29       -0.963187   0.000000