       N       E                     dE             d eps       ncg     rms          rms(c)
DAV:   1     0.387010224613E+03    0.38701E+03   -0.21481E+04  2016   0.102E+03
DAV:   2    -0.958223642550E+02   -0.48283E+03   -0.47307E+03  2704   0.274E+02
DAV:   3    -0.150375527946E+03   -0.54553E+02   -0.54379E+02  2236   0.102E+02
DAV:   4    -0.151616463372E+03   -0.12409E+01   -0.12387E+01  2336   0.188E+01
DAV:   5    -0.151653723016E+03   -0.37260E-01   -0.37231E-01  2736   0.281E+00    0.152E+01
RMM:   6    -0.144182279332E+03    0.74714E+01   -0.74079E+00  1958   0.114E+01    0.797E+00
RMM:   7    -0.141445161798E+03    0.27371E+01   -0.10415E+01  2002   0.132E+01    0.137E+00
RMM:   8    -0.141386670420E+03    0.58491E-01   -0.20385E-01  2158   0.218E+00    0.276E-01
RMM:   9    -0.141369102967E+03    0.17567E-01   -0.46016E-02  2107   0.819E-01    0.244E-01
RMM:  10    -0.141358993266E+03    0.10110E-01   -0.21007E-02  1991   0.496E-01    0.950E-02
RMM:  11    -0.141375417003E+03   -0.16424E-01   -0.47570E-03  2014   0.224E-01    0.735E-02
RMM:  12    -0.141381404840E+03   -0.59878E-02   -0.17213E-03  2086   0.140E-01    0.205E-02
RMM:  13    -0.141383072167E+03   -0.16673E-02   -0.70226E-04  2006   0.851E-02    0.184E-02
RMM:  14    -0.141383138866E+03   -0.66699E-04   -0.52662E-05  2147   0.288E-02    0.209E-03
RMM:  15    -0.141383148258E+03   -0.93927E-05   -0.42303E-06  1605   0.889E-03    0.270E-03
RMM:  16    -0.141383149507E+03   -0.12484E-05   -0.71208E-07  1288   0.410E-03    0.167E-03
RMM:  17    -0.141383149611E+03   -0.10443E-06   -0.10657E-07   915   0.198E-03
   1 F= -.14138315E+03 E0= -.14138276E+03  d E =-.770164E-03
