  51  51   0   0
  0.5138078E+02  0.1230000E-08  0.1230000E-08  0.2000000E-08  0.5000000E-15
  1.000000000000000E-004
  CAR 
                                         
      7.28748993    -33.59901654  301     -3.01728796      1.00000000
    -33.599  0.0000E+00  0.0000E+00
    -33.463  0.0000E+00  0.0000E+00
    -33.326  0.0000E+00  0.0000E+00
    -33.190  0.0000E+00  0.0000E+00
    -33.054  0.0000E+00  0.0000E+00
    -32.918  0.0000E+00  0.0000E+00
    -32.781  0.0000E+00  0.0000E+00
    -32.645  0.0000E+00  0.0000E+00
    -32.509  0.0000E+00  0.0000E+00
    -32.372  0.0000E+00  0.0000E+00
    -32.236  0.0000E+00  0.0000E+00
    -32.100  0.0000E+00  0.0000E+00
    -31.964  0.2058E-08  0.2805E-09
    -31.827  0.1036E+00  0.1411E-01
    -31.691  0.1339E+02  0.1839E+01
    -31.555  0.1184E+01  0.2000E+01
    -31.418  0.1085E-05  0.2000E+01
    -31.282  0.0000E+00  0.2000E+01
    -31.146  0.0000E+00  0.2000E+01
    -31.010  0.0000E+00  0.2000E+01
    -30.873  0.0000E+00  0.2000E+01
    -30.737  0.0000E+00  0.2000E+01
    -30.601  0.0000E+00  0.2000E+01
    -30.464  0.0000E+00  0.2000E+01
    -30.328  0.0000E+00  0.2000E+01
    -30.192  0.0000E+00  0.2000E+01
    -30.056  0.0000E+00  0.2000E+01
    -29.919  0.0000E+00  0.2000E+01
    -29.783  0.0000E+00  0.2000E+01
    -29.647  0.0000E+00  0.2000E+01
    -29.510  0.0000E+00  0.2000E+01
    -29.374  0.0000E+00  0.2000E+01
    -29.238  0.0000E+00  0.2000E+01
    -29.102  0.0000E+00  0.2000E+01
    -28.965  0.0000E+00  0.2000E+01
    -28.829  0.0000E+00  0.2000E+01
    -28.693  0.0000E+00  0.2000E+01
    -28.556  0.0000E+00  0.2000E+01
    -28.420  0.0000E+00  0.2000E+01
    -28.284  0.0000E+00  0.2000E+01
    -28.147  0.0000E+00  0.2000E+01
    -28.011  0.0000E+00  0.2000E+01
    -27.875  0.0000E+00  0.2000E+01
    -27.739  0.0000E+00  0.2000E+01
    -27.602  0.0000E+00  0.2000E+01
    -27.466  0.0000E+00  0.2000E+01
    -27.330  0.0000E+00  0.2000E+01
    -27.193  0.0000E+00  0.2000E+01
    -27.057  0.0000E+00  0.2000E+01
    -26.921  0.0000E+00  0.2000E+01
    -26.785  0.0000E+00  0.2000E+01
    -26.648  0.0000E+00  0.2000E+01
    -26.512  0.0000E+00  0.2000E+01
    -26.376  0.0000E+00  0.2000E+01
    -26.239  0.0000E+00  0.2000E+01
    -26.103  0.0000E+00  0.2000E+01
    -25.967  0.0000E+00  0.2000E+01
    -25.831  0.0000E+00  0.2000E+01
    -25.694  0.0000E+00  0.2000E+01
    -25.558  0.0000E+00  0.2000E+01
    -25.422  0.0000E+00  0.2000E+01
    -25.285  0.0000E+00  0.2000E+01
    -25.149  0.0000E+00  0.2000E+01
    -25.013  0.0000E+00  0.2000E+01
    -24.877  0.0000E+00  0.2000E+01
    -24.740  0.0000E+00  0.2000E+01
    -24.604  0.0000E+00  0.2000E+01
    -24.468  0.0000E+00  0.2000E+01
    -24.331  0.0000E+00  0.2000E+01
    -24.195  0.0000E+00  0.2000E+01
    -24.059  0.0000E+00  0.2000E+01
    -23.923  0.0000E+00  0.2000E+01
    -23.786  0.0000E+00  0.2000E+01
    -23.650  0.0000E+00  0.2000E+01
    -23.514  0.0000E+00  0.2000E+01
    -23.377  0.0000E+00  0.2000E+01
    -23.241  0.0000E+00  0.2000E+01
    -23.105  0.0000E+00  0.2000E+01
    -22.969  0.0000E+00  0.2000E+01
    -22.832  0.0000E+00  0.2000E+01
    -22.696  0.0000E+00  0.2000E+01
    -22.560  0.2715E-15  0.2000E+01
    -22.423  0.1365E-04  0.2000E+01
    -22.287  0.5597E+00  0.2076E+01
    -22.151  0.9569E+01  0.3380E+01
    -22.015  0.5829E+01  0.4175E+01
    -21.878  0.5958E+01  0.4987E+01
    -21.742  0.9027E+01  0.6217E+01
    -21.606  0.9266E+01  0.7480E+01
    -21.469  0.6665E+01  0.8388E+01
    -21.333  0.1162E+02  0.9972E+01
    -21.197  0.1313E+01  0.1015E+02
    -21.060  0.7686E+01  0.1120E+02
    -20.924  0.9999E+01  0.1256E+02
    -20.788  0.1256E+02  0.1427E+02
    -20.652  0.9259E+01  0.1553E+02
    -20.515  0.1962E+00  0.1556E+02
    -20.379  0.1169E+02  0.1715E+02
    -20.243  0.4775E+01  0.1780E+02
    -20.106  0.1787E+02  0.2024E+02
    -19.970  0.1508E+01  0.2045E+02
    -19.834  0.3789E+01  0.2096E+02
    -19.698  0.1426E+02  0.2291E+02
    -19.561  0.8232E+01  0.2403E+02
    -19.425  0.4706E+01  0.2467E+02
    -19.289  0.9328E+01  0.2594E+02
    -19.152  0.1162E+02  0.2753E+02
    -19.016  0.9045E+01  0.2876E+02
    -18.880  0.3540E+01  0.2924E+02
    -18.744  0.4005E+01  0.2979E+02
    -18.607  0.1059E+02  0.3123E+02
    -18.471  0.1078E+02  0.3270E+02
    -18.335  0.1292E+02  0.3446E+02
    -18.198  0.3290E+01  0.3491E+02
    -18.062  0.1418E+02  0.3684E+02
    -17.926  0.7224E+01  0.3783E+02
    -17.790  0.4965E+01  0.3850E+02
    -17.653  0.1820E+01  0.3875E+02
    -17.517  0.1511E+02  0.4081E+02
    -17.381  0.7226E+01  0.4180E+02
    -17.244  0.1940E+02  0.4444E+02
    -17.108  0.8347E+01  0.4558E+02
    -16.972  0.4481E+01  0.4619E+02
    -16.836  0.6862E+01  0.4712E+02
    -16.699  0.4402E+01  0.4772E+02
    -16.563  0.9486E+01  0.4902E+02
    -16.427  0.8533E+01  0.5018E+02
    -16.290  0.3374E+01  0.5064E+02
    -16.154  0.9035E+01  0.5187E+02
    -16.018  0.6098E+01  0.5270E+02
    -15.882  0.1286E+02  0.5445E+02
    -15.745  0.1121E+02  0.5598E+02
    -15.609  0.2472E+01  0.5632E+02
    -15.473  0.4573E+01  0.5694E+02
    -15.336  0.2632E+01  0.5730E+02
    -15.200  0.1140E+02  0.5885E+02
    -15.064  0.2084E+02  0.6170E+02
    -14.928  0.4607E+01  0.6232E+02
    -14.791  0.1289E+02  0.6408E+02
    -14.655  0.8255E+01  0.6520E+02
    -14.519  0.5819E+01  0.6600E+02
    -14.382  0.1774E+02  0.6842E+02
    -14.246  0.2261E+00  0.6845E+02
    -14.110  0.4180E+01  0.6902E+02
    -13.973  0.3346E+01  0.6947E+02
    -13.837  0.1475E+02  0.7148E+02
    -13.701  0.2334E+02  0.7466E+02
    -13.565  0.3358E+01  0.7512E+02
    -13.428  0.3088E+01  0.7554E+02
    -13.292  0.1292E+00  0.7556E+02
    -13.156  0.8818E+01  0.7676E+02
    -13.019  0.1354E+02  0.7861E+02
    -12.883  0.1988E+02  0.8132E+02
    -12.747  0.3388E+01  0.8178E+02
    -12.611  0.2753E+01  0.8215E+02
    -12.474  0.1838E+02  0.8466E+02
    -12.338  0.1082E+02  0.8613E+02
    -12.202  0.3692E+01  0.8664E+02
    -12.065  0.3442E+01  0.8711E+02
    -11.929  0.1142E+02  0.8866E+02
    -11.793  0.4644E+01  0.8929E+02
    -11.657  0.1798E+02  0.9174E+02
    -11.520  0.1571E+02  0.9389E+02
    -11.384  0.1196E+02  0.9552E+02
    -11.248  0.9248E+01  0.9678E+02
    -11.111  0.6859E+01  0.9771E+02
    -10.975  0.4492E+01  0.9832E+02
    -10.839  0.1965E+02  0.1010E+03
    -10.703  0.8955E+01  0.1022E+03
    -10.566  0.9012E+01  0.1034E+03
    -10.430  0.1459E+02  0.1054E+03
    -10.294  0.8734E+01  0.1066E+03
    -10.157  0.3231E+02  0.1110E+03
    -10.021  0.2223E+02  0.1141E+03
     -9.885  0.8877E+01  0.1153E+03
     -9.749  0.2170E+02  0.1182E+03
     -9.612  0.2045E+02  0.1210E+03
     -9.476  0.2823E+02  0.1249E+03
     -9.340  0.2117E+02  0.1277E+03
     -9.203  0.2605E+02  0.1313E+03
     -9.067  0.2668E+02  0.1349E+03
     -8.931  0.2112E+02  0.1378E+03
     -8.795  0.2079E+02  0.1406E+03
     -8.658  0.1989E+02  0.1434E+03
     -8.522  0.1905E+02  0.1460E+03
     -8.386  0.1633E+02  0.1482E+03
     -8.249  0.1540E+02  0.1503E+03
     -8.113  0.1678E+02  0.1526E+03
     -7.977  0.2795E+02  0.1564E+03
     -7.841  0.1645E+02  0.1586E+03
     -7.704  0.1348E+02  0.1605E+03
     -7.568  0.9044E+01  0.1617E+03
     -7.432  0.9357E+00  0.1618E+03
     -7.295  0.2631E+02  0.1654E+03
     -7.159  0.2968E+02  0.1694E+03
     -7.023  0.7362E+01  0.1704E+03
     -6.886  0.1316E+02  0.1722E+03
     -6.750  0.1170E+02  0.1738E+03
     -6.614  0.1665E+02  0.1761E+03
     -6.478  0.1265E+02  0.1778E+03
     -6.341  0.8698E+01  0.1790E+03
     -6.205  0.1439E+02  0.1810E+03
     -6.069  0.1564E+02  0.1831E+03
     -5.932  0.1244E+02  0.1848E+03
     -5.796  0.1584E+02  0.1870E+03
     -5.660  0.1202E+02  0.1886E+03
     -5.524  0.7108E+01  0.1896E+03
     -5.387  0.6209E+01  0.1904E+03
     -5.251  0.9907E+01  0.1918E+03
     -5.115  0.8562E+01  0.1929E+03
     -4.978  0.1614E+02  0.1951E+03
     -4.842  0.1937E+02  0.1978E+03
     -4.706  0.3167E+01  0.1982E+03
     -4.570  0.1650E+00  0.1982E+03
     -4.433  0.2615E-04  0.1982E+03
     -4.297  0.3178E+01  0.1987E+03
     -4.161  0.1727E+02  0.2010E+03
     -4.024  0.4011E+01  0.2016E+03
     -3.888  0.2323E-03  0.2016E+03
     -3.752  0.9598E+00  0.2017E+03
     -3.616  0.2300E+01  0.2020E+03
     -3.479  0.9080E+00  0.2021E+03
     -3.343  0.6673E+01  0.2030E+03
     -3.207  0.1082E+02  0.2045E+03
     -3.070  0.1065E+02  0.2060E+03
     -2.934  0.7956E+00  0.2061E+03
     -2.798  0.6697E+01  0.2070E+03
     -2.662  0.4214E+01  0.2076E+03
     -2.525  0.4289E-03  0.2076E+03
     -2.389  0.1568E+01  0.2078E+03
     -2.253  0.2379E+01  0.2081E+03
     -2.116  0.2571E+01  0.2084E+03
     -1.980  0.3732E-02  0.2084E+03
     -1.844  0.1271E-10  0.2084E+03
     -1.708  0.4954E-02  0.2084E+03
     -1.571  0.6993E+01  0.2094E+03
     -1.435  0.1011E+02  0.2108E+03
     -1.299  0.7345E+01  0.2118E+03
     -1.162  0.1995E-02  0.2118E+03
     -1.026  0.5388E+00  0.2119E+03
     -0.890  0.8754E+01  0.2130E+03
     -0.754  0.2389E+02  0.2163E+03
     -0.617  0.1827E+02  0.2188E+03
     -0.481  0.5385E+01  0.2195E+03
     -0.345  0.2707E+00  0.2196E+03
     -0.208  0.4889E+01  0.2202E+03
     -0.072  0.1115E+02  0.2217E+03
      0.064  0.9787E+01  0.2231E+03
      0.200  0.8246E+00  0.2232E+03
      0.337  0.1785E+02  0.2256E+03
      0.473  0.5692E+01  0.2264E+03
      0.609  0.3832E+01  0.2269E+03
      0.746  0.1703E+02  0.2292E+03
      0.882  0.1007E+02  0.2306E+03
      1.018  0.6831E+01  0.2315E+03
      1.155  0.1509E+02  0.2336E+03
      1.291  0.8828E+01  0.2348E+03
      1.427  0.1278E+02  0.2365E+03
      1.563  0.2039E+02  0.2393E+03
      1.700  0.1845E+02  0.2418E+03
      1.836  0.2349E+02  0.2450E+03
      1.972  0.1805E+02  0.2475E+03
      2.109  0.1009E+02  0.2489E+03
      2.245  0.1848E+02  0.2514E+03
      2.381  0.3588E+02  0.2563E+03
      2.517  0.1256E+02  0.2580E+03
      2.654  0.1075E+01  0.2581E+03
      2.790  0.8792E+01  0.2593E+03
      2.926  0.9462E+01  0.2606E+03
      3.063  0.9373E+01  0.2619E+03
      3.199  0.5285E+01  0.2626E+03
      3.335  0.1889E+01  0.2629E+03
      3.471  0.3321E-03  0.2629E+03
      3.608  0.3501E+00  0.2629E+03
      3.744  0.1279E+01  0.2631E+03
      3.880  0.6487E-02  0.2631E+03
      4.017  0.2635E+01  0.2635E+03
      4.153  0.6217E+00  0.2636E+03
      4.289  0.3655E-05  0.2636E+03
      4.425  0.0000E+00  0.2636E+03
      4.562  0.0000E+00  0.2636E+03
      4.698  0.0000E+00  0.2636E+03
      4.834  0.0000E+00  0.2636E+03
      4.971  0.1067E-06  0.2636E+03
      5.107  0.1262E+00  0.2636E+03
      5.243  0.1492E+01  0.2638E+03
      5.379  0.1435E+00  0.2638E+03
      5.516  0.1488E+01  0.2640E+03
      5.652  0.1155E-01  0.2640E+03
      5.788  0.2306E-09  0.2640E+03
      5.925  0.0000E+00  0.2640E+03
      6.061  0.0000E+00  0.2640E+03
      6.197  0.0000E+00  0.2640E+03
      6.333  0.0000E+00  0.2640E+03
      6.470  0.0000E+00  0.2640E+03
      6.606  0.0000E+00  0.2640E+03
      6.742  0.0000E+00  0.2640E+03
      6.879  0.0000E+00  0.2640E+03
      7.015  0.0000E+00  0.2640E+03
      7.151  0.0000E+00  0.2640E+03
      7.287  0.0000E+00  0.2640E+03
