       N       E                     dE             d eps       ncg     rms          rms(c)
DAV:   1     0.167397914861E+04    0.16740E+04   -0.69788E+04   984   0.936E+02
DAV:   2    -0.134550747749E+03   -0.18085E+04   -0.17248E+04  1188   0.251E+02
DAV:   3    -0.475948576752E+03   -0.34140E+03   -0.33931E+03   984   0.117E+02
DAV:   4    -0.487850079045E+03   -0.11902E+02   -0.11682E+02   960   0.269E+01
DAV:   5    -0.488216839559E+03   -0.36676E+00   -0.36353E+00  1044   0.418E+00    0.338E+01
RMM:   6    -0.463871197502E+03    0.24346E+02   -0.26943E+01   864   0.117E+01    0.200E+01
RMM:   7    -0.457055194240E+03    0.68160E+01   -0.23263E+01   878   0.106E+01    0.116E+01
RMM:   8    -0.454588381412E+03    0.24668E+01   -0.71295E+00   887   0.589E+00    0.439E+00
RMM:   9    -0.454462157770E+03    0.12622E+00   -0.11011E+00   933   0.209E+00    0.282E+00
RMM:  10    -0.454323193859E+03    0.13896E+00   -0.16653E-01   899   0.982E-01    0.425E-01
RMM:  11    -0.454314259672E+03    0.89342E-02   -0.16236E-02   922   0.263E-01    0.278E-01
RMM:  12    -0.454305845993E+03    0.84137E-02   -0.30463E-02   875   0.298E-01    0.228E-01
RMM:  13    -0.454310797499E+03   -0.49515E-02   -0.78080E-03   881   0.167E-01    0.189E-01
RMM:  14    -0.454319375778E+03   -0.85783E-02   -0.46508E-03   863   0.115E-01    0.747E-02
RMM:  15    -0.454326328908E+03   -0.69531E-02   -0.79852E-04   920   0.563E-02    0.434E-02
RMM:  16    -0.454335518270E+03   -0.91894E-02   -0.92234E-04   857   0.500E-02    0.266E-02
RMM:  17    -0.454339363608E+03   -0.38453E-02   -0.54766E-04   727   0.332E-02    0.158E-02
RMM:  18    -0.454340015268E+03   -0.65166E-03   -0.89079E-05   727   0.139E-02    0.586E-03
RMM:  19    -0.454340298475E+03   -0.28321E-03   -0.27127E-05   686   0.873E-03    0.388E-03
RMM:  20    -0.454340414630E+03   -0.11616E-03   -0.88931E-06   567   0.532E-03    0.176E-03
RMM:  21    -0.454340476944E+03   -0.62314E-04   -0.48610E-06   412   0.363E-03    0.113E-03
RMM:  22    -0.454340523537E+03   -0.46593E-04   -0.17856E-06   400   0.276E-03    0.137E-03
RMM:  23    -0.454340546588E+03   -0.23052E-04   -0.34333E-07   307   0.188E-03    0.599E-04
RMM:  24    -0.454340553786E+03   -0.71974E-05   -0.99630E-08   265   0.155E-03
   1 F= -.45434055E+03 E0= -.45434050E+03  d E =-.114515E-03
