 vasp.5.4.4.18Apr17-6-g9f103f2a35 (build Aug 13 2022 23:40:43) complex          
  
 executed on             LinuxIFC date 2024.11.10  03:36:13
 running on   48 total cores
 distrk:  each k-point on   48 cores,    1 groups
 distr:  one band on NCORES_PER_BAND=   8 cores,    6 groups


--------------------------------------------------------------------------------------------------------


 INCAR:
 POTCAR:    PAW_PBE C 08Apr2002                   
 POTCAR:    PAW_PBE O 08Apr2002                   
 POTCAR:    PAW_PBE C 08Apr2002                   
   VRHFIN =C: s2p2                                                              
   LEXCH  = PE                                                                  
   EATOM  =   147.1560 eV,   10.8157 Ry                                         
                                                                                
   TITEL  = PAW_PBE C 08Apr2002                                                 
   LULTRA =        F    use ultrasoft PP ?                                      
   IUNSCR =        1    unscreen: 0-lin 1-nonlin 2-no                           
   RPACOR =    1.200    partial core radius                                     
   POMASS =   12.011; ZVAL   =    4.000    mass and valenz                      
   RCORE  =    1.500    outmost cutoff radius                                   
   RWIGS  =    1.630; RWIGS  =    0.863    wigner-seitz radius (au A)           
   ENMAX  =  400.000; ENMIN  =  300.000 eV                                      
   ICORE  =        2    local potential                                         
   LCOR   =        T    correct aug charges                                     
   LPAW   =        T    paw PP                                                  
   EAUG   =  644.873                                                            
   DEXC   =    0.000                                                            
   RMAX   =    1.529    core radius for proj-oper                               
   RAUG   =    1.300    factor for augmentation sphere                          
   RDEP   =    1.501    radius for radial grids                                 
   RDEPT  =    1.300    core radius for aug-charge                              
                                                                                
   Atomic configuration                                                         
    4 entries                                                                   
     n  l   j            E        occ.                                          
     1  0  0.50      -273.3789   2.0000                                         
     2  0  0.50       -13.7508   2.0000                                         
     2  1  0.50        -5.2854   2.0000                                         
     3  2  1.50        -5.4423   0.0000                                         
   Description                                                                  
     l       E           TYP  RCUT    TYP  RCUT                                 
     0    -13.7508458     23  1.200                                             
     0     -8.2022199     23  1.200                                             
     1     -5.2854383     23  1.500                                             
     1     34.0145650     23  1.500                                             
     2     -5.4423304      7  1.500                                             
  local pseudopotential read in
  partial core-charges read in
  partial kinetic energy density read in
  atomic valenz-charges read in
  non local Contribution for L=           0  read in
    real space projection operators read in
  non local Contribution for L=           0  read in
    real space projection operators read in
  non local Contribution for L=           1  read in
    real space projection operators read in
  non local Contribution for L=           1  read in
    real space projection operators read in
    PAW grid and wavefunctions read in
 
   number of l-projection  operators is LMAX  =           4
   number of lm-projection operators is LMMAX =           8
 
 POTCAR:    PAW_PBE O 08Apr2002                   
   VRHFIN =O: s2p4                                                              
   LEXCH  = PE                                                                  
   EATOM  =   432.3788 eV,   31.7789 Ry                                         
                                                                                
   TITEL  = PAW_PBE O 08Apr2002                                                 
   LULTRA =        F    use ultrasoft PP ?                                      
   IUNSCR =        1    unscreen: 0-lin 1-nonlin 2-no                           
   RPACOR =    1.200    partial core radius                                     
   POMASS =   16.000; ZVAL   =    6.000    mass and valenz                      
   RCORE  =    1.520    outmost cutoff radius                                   
   RWIGS  =    1.550; RWIGS  =    0.820    wigner-seitz radius (au A)           
   ENMAX  =  400.000; ENMIN  =  300.000 eV                                      
   ICORE  =        2    local potential                                         
   LCOR   =        T    correct aug charges                                     
   LPAW   =        T    paw PP                                                  
   EAUG   =  605.392                                                            
   DEXC   =    0.000                                                            
   RMAX   =    1.553    core radius for proj-oper                               
   RAUG   =    1.300    factor for augmentation sphere                          
   RDEP   =    1.550    radius for radial grids                                 
   RDEPT  =    1.329    core radius for aug-charge                              
                                                                                
   Atomic configuration                                                         
    4 entries                                                                   
     n  l   j            E        occ.                                          
     1  0  0.50      -514.6923   2.0000                                         
     2  0  0.50       -23.9615   2.0000                                         
     2  1  0.50        -9.0305   4.0000                                         
     3  2  1.50        -9.5241   0.0000                                         
   Description                                                                  
     l       E           TYP  RCUT    TYP  RCUT                                 
     0    -23.9615318     23  1.200                                             
     0     -9.5240782     23  1.200                                             
     1     -9.0304911     23  1.520                                             
     1      8.1634956     23  1.520                                             
     2     -9.5240782      7  1.500                                             
  local pseudopotential read in
  partial core-charges read in
  partial kinetic energy density read in
  kinetic energy density of atom read in
  atomic valenz-charges read in
  non local Contribution for L=           0  read in
    real space projection operators read in
  non local Contribution for L=           0  read in
    real space projection operators read in
  non local Contribution for L=           1  read in
    real space projection operators read in
  non local Contribution for L=           1  read in
    real space projection operators read in
    PAW grid and wavefunctions read in
 
   number of l-projection  operators is LMAX  =           4
   number of lm-projection operators is LMMAX =           8
 

 ----------------------------------------------------------------------------- 
|                                                                             |
|  ADVICE TO THIS USER RUNNING 'VASP/VAMP'   (HEAR YOUR MASTER'S VOICE ...):  |
|                                                                             |
|      You have a (more or less) 'large supercell' and for larger cells       |
|      it might be more efficient to use real space projection opertators     |
|      So try LREAL= Auto  in the INCAR   file.                               |
|      Mind:          For very  accurate calculation you might also keep the  |
|      reciprocal projection scheme          (i.e. LREAL=.FALSE.)             |
|                                                                             |
 ----------------------------------------------------------------------------- 

  PAW_PBE C 08Apr2002                   :
 energy of atom  1       EATOM= -147.1560
 kinetic energy error for atom=    0.0288 (will be added to EATOM!!)
  PAW_PBE O 08Apr2002                   :
 energy of atom  2       EATOM= -432.3788
 kinetic energy error for atom=    0.1156 (will be added to EATOM!!)
 
 
 POSCAR: generated by phonopy                    
  positions in direct lattice
  No initial velocities read in
 exchange correlation table for  LEXCH =        8
   RHO(1)=    0.500       N(1)  =     2000
   RHO(2)=  100.500       N(2)  =     4000

 VTST: version 3.2, (02/03/18)

 CHAIN: initializing optimizer
 
 OPT: Using VASP Dynamics algorithm
 CHAIN: Read ICHAIN            0
 
 POSCAR: generated by phonopy                    
  positions in direct lattice
  No initial velocities read in
 


--------------------------------------------------------------------------------------------------------


 ion  position               nearest neighbor table
   1  0.000  0.000  0.418-  26 1.42  30 1.42  46 1.42
   2  0.200  0.000  0.418-  27 1.42  26 1.42  47 1.42
   3  0.400  0.000  0.418-  28 1.42  27 1.42  48 1.42
   4  0.600  0.000  0.418-  29 1.42  28 1.42  49 1.42
   5  0.800  0.000  0.418-  30 1.42  29 1.42  50 1.42
   6  0.000  0.200  0.418-  31 1.42  35 1.42  26 1.42
   7  0.200  0.200  0.418-  32 1.42  31 1.42  27 1.42
   8  0.400  0.200  0.418-  33 1.42  32 1.42  28 1.42
   9  0.600  0.200  0.418-  34 1.42  33 1.42  29 1.42
  10  0.800  0.200  0.418-  35 1.42  34 1.42  30 1.42
  11  0.000  0.400  0.418-  36 1.42  40 1.42  31 1.42
  12  0.200  0.400  0.418-  37 1.42  36 1.42  32 1.42
  13  0.400  0.400  0.418-  51 1.00  38 1.42  37 1.42  33 1.42
  14  0.600  0.400  0.418-  39 1.42  38 1.42  34 1.42
  15  0.800  0.400  0.418-  40 1.42  39 1.42  35 1.42
  16  0.000  0.600  0.418-  41 1.42  45 1.42  36 1.42
  17  0.200  0.600  0.418-  42 1.42  41 1.42  37 1.42
  18  0.400  0.600  0.418-  43 1.42  42 1.42  38 1.42
  19  0.600  0.600  0.418-  44 1.42  43 1.42  39 1.42
  20  0.800  0.600  0.418-  45 1.42  44 1.42  40 1.42
  21  0.000  0.800  0.418-  46 1.42  50 1.42  41 1.42
  22  0.200  0.800  0.418-  47 1.42  46 1.42  42 1.42
  23  0.400  0.800  0.418-  48 1.42  47 1.42  43 1.42
  24  0.600  0.800  0.418-  49 1.42  48 1.42  44 1.42
  25  0.800  0.800  0.418-  50 1.42  49 1.42  45 1.42
  26  0.067  0.067  0.418-   1 1.42   2 1.42   6 1.42
  27  0.267  0.067  0.418-   2 1.42   3 1.42   7 1.42
  28  0.467  0.067  0.418-   3 1.42   4 1.42   8 1.42
  29  0.667  0.067  0.418-   4 1.42   5 1.42   9 1.42
  30  0.867  0.067  0.418-   5 1.42   1 1.42  10 1.42
  31  0.067  0.267  0.418-   6 1.42   7 1.42  11 1.42
  32  0.267  0.267  0.418-   7 1.42   8 1.42  12 1.42
  33  0.467  0.267  0.418-   8 1.42   9 1.42  13 1.42  51 1.74
  34  0.667  0.267  0.418-   9 1.42  10 1.42  14 1.42
  35  0.867  0.267  0.418-  10 1.42   6 1.42  15 1.42
  36  0.067  0.467  0.418-  11 1.42  12 1.42  16 1.42
  37  0.267  0.467  0.418-  12 1.42  13 1.42  17 1.42  51 1.74
  38  0.467  0.467  0.418-  13 1.42  14 1.42  18 1.42  51 1.74
  39  0.667  0.467  0.418-  14 1.42  15 1.42  19 1.42
  40  0.867  0.467  0.418-  15 1.42  11 1.42  20 1.42
  41  0.067  0.667  0.418-  16 1.42  17 1.42  21 1.42
  42  0.267  0.667  0.418-  17 1.42  18 1.42  22 1.42
  43  0.467  0.667  0.418-  18 1.42  19 1.42  23 1.42
  44  0.667  0.667  0.418-  19 1.42  20 1.42  24 1.42
  45  0.867  0.667  0.418-  20 1.42  16 1.42  25 1.42
  46  0.067  0.867  0.418-  21 1.42  22 1.42   1 1.42
  47  0.267  0.867  0.418-  22 1.42  23 1.42   2 1.42
  48  0.467  0.867  0.418-  23 1.42  24 1.42   3 1.42
  49  0.667  0.867  0.418-  24 1.42  25 1.42   4 1.42
  50  0.867  0.867  0.418-  25 1.42  21 1.42   5 1.42
  51  0.400  0.400  0.468-  13 1.00  38 1.74  37 1.74  33 1.74
 
  LATTYP: Found a hexagonal cell.
 ALAT       =    12.2999994816
 C/A-ratio  =     1.6260163287
  
  Lattice vectors:
  
 A1 = (   6.1499993860, -10.6521122225,   0.0000000000)
 A2 = ( -12.3000001905,   0.0000000000,   0.0000000000)
 A3 = (   0.0000000000,   0.0000000000, -20.0000000000)


Analysis of symmetry for initial positions (statically):
=====================================================================
 Subroutine PRICEL returns:
 Original cell was already a primitive cell.
 

 Routine SETGRP: Setting up the symmetry group for a 
 hexagonal supercell.


 Subroutine GETGRP returns: Found  6 space group operations
 (whereof  2 operations were pure point group operations)
 out of a pool of 24 trial point group operations.


The static configuration has the point symmetry C_1h.
 The point group associated with its full space group is C_3v.


Analysis of symmetry for dynamics (positions and initial velocities):
=====================================================================
 Subroutine PRICEL returns:
 Original cell was already a primitive cell.
 

 Routine SETGRP: Setting up the symmetry group for a 
 hexagonal supercell.


 Subroutine GETGRP returns: Found  6 space group operations
 (whereof  2 operations were pure point group operations)
 out of a pool of 24 trial point group operations.


The dynamic configuration has the point symmetry C_1h.
 The point group associated with its full space group is C_3v.


 Subroutine INISYM returns: Found  6 space group operations
 (whereof  2 operations are pure point group operations),
 and found     1 'primitive' translations

 
 
 KPOINTS: K-POINTS                                

Automatic generation of k-mesh.
Space group operators:
 irot       det(A)        alpha          n_x          n_y          n_z        tau_x        tau_y        tau_z
    1     1.000000     0.000000     1.000000     0.000000     0.000000     0.000000     0.000000     0.000000
    2    -1.000000   180.000000     0.500000    -0.866025     0.000000     0.000000     0.000000     0.000000
    3     1.000000   120.000000     0.000000     0.000000     1.000000    -0.000000    -0.800000     0.000000
    4     1.000000   120.000000     0.000000     0.000000    -1.000000    -0.800000     0.000000     0.000000
    5    -1.000000   180.000000     1.000000    -0.000000     0.000000    -0.800000     0.000000     0.000000
    6    -1.000000   180.000000    -0.500000    -0.866025     0.000000    -0.000000    -0.800000     0.000000
 
 Subroutine IBZKPT returns following result:
 ===========================================
 
 Found      3 irreducible k-points:
 
 Following reciprocal coordinates:
            Coordinates               Weight
  0.000000  0.000000  0.000000      1.000000
  0.333333  0.000000  0.000000      6.000000
 -0.333333  0.333333  0.000000      2.000000
 
 Following cartesian coordinates:
            Coordinates               Weight
  0.000000  0.000000  0.000000      1.000000
  0.027100 -0.015646  0.000000      6.000000
 -0.027100  0.046939  0.000000      2.000000
 


--------------------------------------------------------------------------------------------------------




 Dimension of arrays:
   k-points           NKPTS =      3   k-points in BZ     NKDIM =      3   number of bands    NBANDS=    132
   number of dos      NEDOS =    301   number of ions     NIONS =     51
   non local maximal  LDIM  =      4   non local SUM 2l+1 LMDIM =      8
   total plane-waves  NPLWV = 896000
   max r-space proj   IRMAX =      1   max aug-charges    IRDMAX=  35685
   dimension x,y,z NGX =    80 NGY =   80 NGZ =  140
   dimension x,y,z NGXF=   160 NGYF=  160 NGZF=  280
   support grid    NGXF=   320 NGYF=  320 NGZF=  560
   ions per type =              50   1
   NGX,Y,Z   is equivalent  to a cutoff of  10.81, 10.81, 11.64 a.u.
   NGXF,Y,Z  is equivalent  to a cutoff of  21.63, 21.63, 23.27 a.u.

 SYSTEM =                                          
 POSCAR =  generated by phonopy                    

 Startparameter for this run:
   NWRITE =      2    write-flag & timer
   PREC   = accura    normal or accurate (medium, high low for compatibility)
   ISTART =      0    job   : 0-new  1-cont  2-samecut
   ICHARG =      2    charge: 1-file 2-atom 10-const
   ISPIN  =      1    spin polarized calculation?
   LNONCOLLINEAR =      F non collinear calculations
   LSORBIT =      F    spin-orbit coupling
   INIWAV =      1    electr: 0-lowe 1-rand  2-diag
   LASPH  =      F    aspherical Exc in radial PAW
   METAGGA=      F    non-selfconsistent MetaGGA calc.

 Electronic Relaxation 1
   ENCUT  =  400.0 eV  29.40 Ry    5.42 a.u.  20.06 20.06 32.61*2*pi/ulx,y,z
   ENINI  =  400.0     initial cutoff
   ENAUG  =  644.9 eV  augmentation charge cutoff
   NELM   =    300;   NELMIN=  2; NELMDL= -5     # of ELM steps 
   EDIFF  = 0.1E-04   stopping-criterion for ELM
   LREAL  =      F    real-space projection
   NLSPLINE    = F    spline interpolate recip. space projectors
   LCOMPAT=      F    compatible to vasp.4.4
   GGA_COMPAT  = T    GGA compatible to vasp.4.4-vasp.4.6
   LMAXPAW     = -100 max onsite density
   LMAXMIX     =    2 max onsite mixed and CHGCAR
   VOSKOWN=      0    Vosko Wilk Nusair interpolation
   ROPT   =    0.00000   0.00000
 Ionic relaxation
   EDIFFG = -.1E-02   stopping-criterion for IOM
   NSW    =      1    number of steps for IOM
   NBLOCK =      1;   KBLOCK =      1    inner block; outer block 
   IBRION =     -1    ionic relax: 0-MD 1-quasi-New 2-CG
   NFREE  =      0    steps in history (QN), initial steepest desc. (CG)
   ISIF   =      2    stress and relaxation
   IWAVPR =     10    prediction:  0-non 1-charg 2-wave 3-comb
   ISYM   =      2    0-nonsym 1-usesym 2-fastsym
   LCORR  =      T    Harris-Foulkes like correction to forces

   POTIM  = 0.5000    time-step for ionic-motion
   TEIN   =    0.0    initial temperature
   TEBEG  =    0.0;   TEEND  =   0.0 temperature during run
   SMASS  =  -3.00    Nose mass-parameter (am)
   estimated Nose-frequenzy (Omega)   =  0.10E-29 period in steps =****** mass=  -0.346E-26a.u.
   SCALEE = 1.0000    scale energy and forces
   NPACO  =    256;   APACO  = 16.0  distance and # of slots for P.C.
   PSTRESS=    0.0 pullay stress

  Mass of Ions in am
   POMASS =  12.01 16.00
  Ionic Valenz
   ZVAL   =   4.00  6.00
  Atomic Wigner-Seitz radii
   RWIGS  =  -1.00 -1.00
  virtual crystal weights 
   VCA    =   1.00  1.00
   NELECT =     206.0000    total number of electrons
   NUPDOWN=      -1.0000    fix difference up-down

 DOS related values:
   EMIN   =  10.00;   EMAX   =-10.00  energy-range for DOS
   EFERMI =   0.00
   ISMEAR =     0;   SIGMA  =   0.05  broadening in eV -4-tet -1-fermi 0-gaus

 Electronic relaxation 2 (details)
   IALGO  =     68    algorithm
   LDIAG  =      T    sub-space diagonalisation (order eigenvalues)
   LSUBROT=      F    optimize rotation matrix (better conditioning)
   TURBO    =      0    0=normal 1=particle mesh
   IRESTART =      0    0=no restart 2=restart with 2 vectors
   NREBOOT  =      0    no. of reboots
   NMIN     =      0    reboot dimension
   EREF     =   0.00    reference energy to select bands
   IMIX   =      4    mixing-type and parameters
     AMIX     =   0.40;   BMIX     =  1.00
     AMIX_MAG =   1.60;   BMIX_MAG =  1.00
     AMIN     =   0.10
     WC   =   100.;   INIMIX=   1;  MIXPRE=   1;  MAXMIX= -45

 Intra band minimization:
   WEIMIN = 0.0000     energy-eigenvalue tresh-hold
   EBREAK =  0.19E-07  absolut break condition
   DEPER  =   0.30     relativ break condition  

   TIME   =   0.40     timestep for ELM

  volume/ion in A,a.u.               =      51.38       346.73
  Fermi-wavevector in a.u.,A,eV,Ry     =   0.701305  1.325274  6.691736  0.491829
  Thomas-Fermi vector in A             =   1.785695
 
 Write flags
   LWAVE        =      T    write WAVECAR
   LDOWNSAMPLE  =      F    k-point downsampling of WAVECAR
   LCHARG       =      T    write CHGCAR
   LVTOT        =      F    write LOCPOT, total local potential
   LVHAR        =      F    write LOCPOT, Hartree potential only
   LELF         =      F    write electronic localiz. function (ELF)
   LORBIT       =      0    0 simple, 1 ext, 2 COOP (PROOUT), +10 PAW based schemes


 Dipole corrections
   LMONO  =      F    monopole corrections only (constant potential shift)
   LDIPOL =      F    correct potential (dipole corrections)
   IDIPOL =      0    1-x, 2-y, 3-z, 4-all directions 
   EPSILON=  1.0000000 bulk dielectric constant

 Exchange correlation treatment:
   GGA     =    --    GGA type
   LEXCH   =     8    internal setting for exchange type
   VOSKOWN=      0    Vosko Wilk Nusair interpolation
   LHFCALC =     F    Hartree Fock is set to
   LHFONE  =     F    Hartree Fock one center treatment
   AEXX    =    0.0000 exact exchange contribution

 Linear response parameters
   LEPSILON=     F    determine dielectric tensor
   LRPA    =     F    only Hartree local field effects (RPA)
   LNABLA  =     F    use nabla operator in PAW spheres
   LVEL    =     F    velocity operator in full k-point grid
   LINTERFAST=   F  fast interpolation
   KINTER  =     0    interpolate to denser k-point grid
   CSHIFT  =0.1000    complex shift for real part using Kramers Kronig
   OMEGAMAX=  -1.0    maximum frequency
   DEG_THRESHOLD= 0.2000000E-02 threshold for treating states as degnerate
   RTIME   =   -0.100 relaxation time in fs
  (WPLASMAI=    0.000 imaginary part of plasma frequency in eV, 0.658/RTIME)
   DFIELD  = 0.0000000 0.0000000 0.0000000 field for delta impulse in time
 
 Orbital magnetization related:
   ORBITALMAG=     F  switch on orbital magnetization
   LCHIMAG   =     F  perturbation theory with respect to B field
   DQ        =  0.001000  dq finite difference perturbation B field
   LLRAUG    =     F  two centre corrections for induced B field



--------------------------------------------------------------------------------------------------------


 Static calculation
 charge density and potential will be updated during run
 non-spin polarized calculation
 RMM-DIIS sequential band-by-band and
  variant of blocked Davidson during initial phase
 perform sub-space diagonalisation
    before iterative eigenvector-optimisation
 modified Broyden-mixing scheme, WC =      100.0
 initial mixing is a Kerker type mixing with AMIX =  0.4000 and BMIX =      1.0000
 Hartree-type preconditioning will be used
 using additional bands           29
 reciprocal scheme for non local part
 use partial core corrections
 calculate Harris-corrections to forces 
   (improved forces if not selfconsistent)
 use gradient corrections 
 use of overlap-Matrix (Vanderbilt PP)
 Gauss-broadening in eV      SIGMA  =   0.05


--------------------------------------------------------------------------------------------------------


  energy-cutoff  :      400.00
  volume of cell :     2620.42
      direct lattice vectors                 reciprocal lattice vectors
    12.300000191  0.000000000  0.000000000     0.081300812 -0.046939053  0.000000000
     6.150000804 10.652112223  0.000000000     0.000000000  0.093878095  0.000000000
     0.000000000  0.000000000 20.000000000     0.000000000  0.000000000  0.050000000

  length of vectors
    12.300000191 12.300000191 20.000000000     0.093878095  0.093878095  0.050000000


 
 k-points in units of 2pi/SCALE and weight: K-POINTS                                
   0.00000000  0.00000000  0.00000000       0.111
   0.02710027 -0.01564635  0.00000000       0.667
  -0.02710027  0.04693905  0.00000000       0.222
 
 k-points in reciprocal lattice and weights: K-POINTS                                
   0.00000000  0.00000000  0.00000000       0.111
   0.33333333  0.00000000  0.00000000       0.667
  -0.33333333  0.33333333  0.00000000       0.222
 
 position of ions in fractional coordinates (direct lattice) 
   0.00000000  0.00000000  0.41799748
   0.20000000  0.00000000  0.41799748
   0.40000000  0.00000000  0.41799748
   0.60000000  0.00000000  0.41799748
   0.80000000  0.00000000  0.41799748
   0.00000000  0.20000000  0.41799748
   0.20000000  0.20000000  0.41799748
   0.40000000  0.20000000  0.41799748
   0.60000000  0.20000000  0.41799748
   0.80000000  0.20000000  0.41799748
   0.00000000  0.40000000  0.41799748
   0.20000000  0.40000000  0.41799748
   0.40000000  0.40000000  0.41799748
   0.60000000  0.40000000  0.41799748
   0.80000000  0.40000000  0.41799748
   0.00000000  0.60000000  0.41799748
   0.20000000  0.60000000  0.41799748
   0.40000000  0.60000000  0.41799748
   0.60000000  0.60000000  0.41799748
   0.80000000  0.60000000  0.41799748
   0.00000000  0.80000000  0.41799748
   0.20000000  0.80000000  0.41799748
   0.40000000  0.80000000  0.41799748
   0.60000000  0.80000000  0.41799748
   0.80000000  0.80000000  0.41799748
   0.06666667  0.06666660  0.41800609
   0.26666667  0.06666660  0.41800609
   0.46666667  0.06666660  0.41800609
   0.66666667  0.06666660  0.41800609
   0.86666667  0.06666660  0.41800609
   0.06666667  0.26666660  0.41800609
   0.26666667  0.26666660  0.41800609
   0.46666667  0.26666660  0.41800609
   0.66666667  0.26666660  0.41800609
   0.86666667  0.26666660  0.41800609
   0.06666667  0.46666660  0.41800609
   0.26666667  0.46666660  0.41800609
   0.46666667  0.46666660  0.41800609
   0.66666667  0.46666660  0.41800609
   0.86666667  0.46666660  0.41800609
   0.06666667  0.66666660  0.41800609
   0.26666667  0.66666660  0.41800609
   0.46666667  0.66666660  0.41800609
   0.66666667  0.66666660  0.41800609
   0.86666667  0.66666660  0.41800609
   0.06666667  0.86666660  0.41800609
   0.26666667  0.86666660  0.41800609
   0.46666667  0.86666660  0.41800609
   0.66666667  0.86666660  0.41800609
   0.86666667  0.86666660  0.41800609
   0.40000000  0.40000000  0.46800609
 
 position of ions in cartesian coordinates  (Angst):
   0.00000000  0.00000000  8.35994958
   2.46000004  0.00000000  8.35994958
   4.92000008  0.00000000  8.35994958
   7.38000011  0.00000000  8.35994958
   9.84000015  0.00000000  8.35994958
   1.23000016  2.13042244  8.35994958
   3.69000020  2.13042244  8.35994958
   6.15000024  2.13042244  8.35994958
   8.61000028  2.13042244  8.35994958
  11.07000031  2.13042244  8.35994958
   2.46000032  4.26084489  8.35994958
   4.92000036  4.26084489  8.35994958
   7.38000040  4.26084489  8.35994958
   9.84000044  4.26084489  8.35994958
  12.30000047  4.26084489  8.35994958
   3.69000048  6.39126733  8.35994958
   6.15000052  6.39126733  8.35994958
   8.61000056  6.39126733  8.35994958
  11.07000060  6.39126733  8.35994958
  13.53000064  6.39126733  8.35994958
   4.92000064  8.52168978  8.35994958
   7.38000068  8.52168978  8.35994958
   9.84000072  8.52168978  8.35994958
  12.30000076  8.52168978  8.35994958
  14.76000080  8.52168978  8.35994958
   1.22999970  0.71014014  8.36012184
   3.68999974  0.71014014  8.36012184
   6.14999977  0.71014014  8.36012184
   8.60999981  0.71014014  8.36012184
  11.06999985  0.71014014  8.36012184
   2.45999986  2.84056258  8.36012184
   4.91999990  2.84056258  8.36012184
   7.37999994  2.84056258  8.36012184
   9.83999997  2.84056258  8.36012184
  12.30000001  2.84056258  8.36012184
   3.69000002  4.97098503  8.36012184
   6.15000006  4.97098503  8.36012184
   8.61000010  4.97098503  8.36012184
  11.07000013  4.97098503  8.36012184
  13.53000017  4.97098503  8.36012184
   4.92000018  7.10140747  8.36012184
   7.38000022  7.10140747  8.36012184
   9.84000026  7.10140747  8.36012184
  12.30000030  7.10140747  8.36012184
  14.76000033  7.10140747  8.36012184
   6.15000034  9.23182991  8.36012184
   8.61000038  9.23182991  8.36012184
  11.07000042  9.23182991  8.36012184
  13.53000046  9.23182991  8.36012184
  15.99000049  9.23182991  8.36012184
   7.38000040  4.26084489  9.36012184
 


--------------------------------------------------------------------------------------------------------


 k-point  1 :   0.0000 0.0000 0.0000  plane waves:   47639
 k-point  2 :   0.3333 0.0000 0.0000  plane waves:   47601
 k-point  3 :  -0.3333 0.3333 0.0000  plane waves:   47598

 maximum and minimum number of plane-waves per node :      5975     5935

 maximum number of plane-waves:     47639
 maximum index in each direction: 
   IXMAX=   20   IYMAX=   20   IZMAX=   32
   IXMIN=  -20   IYMIN=  -20   IZMIN=  -32


 parallel 3D FFT for wavefunctions:
    minimum data exchange during FFTs selected (reduces bandwidth)
 parallel 3D FFT for charge:
    minimum data exchange during FFTs selected (reduces bandwidth)


 total amount of memory used by VASP MPI-rank0    84338. kBytes
=======================================================================

   base      :      30000. kBytes
   nonl-proj :       7142. kBytes
   fftplans  :      26248. kBytes
   grid      :      14579. kBytes
   one-center:         21. kBytes
   wavefun   :       6348. kBytes
 
     INWAV:  cpu time    0.0000: real time    0.0000
 Broyden mixing: mesh for mixing (old mesh)
   NGX = 41   NGY = 41   NGZ = 65
  (NGX  =160   NGY  =160   NGZ  =280)
  gives a total of 109265 points

 initial charge density was supplied:
 charge density of overlapping atoms calculated
 number of electron     206.0000000 magnetization 
 keeping initial charge density in first step


--------------------------------------------------------------------------------------------------------


 Maximum index for augmentation-charges         1119 (set IRDMAX)


--------------------------------------------------------------------------------------------------------


 First call to EWALD:  gamma=   0.129
 Maximum number of real-space cells 3x 3x 2
 Maximum number of reciprocal cells 3x 3x 4

    FEWALD:  cpu time    0.0025: real time    0.0040


--------------------------------------- Iteration      1(   1)  ---------------------------------------


    POTLOK:  cpu time    0.1087: real time    0.1123
    SETDIJ:  cpu time    0.0838: real time    0.0850
     EDDAV:  cpu time    2.8145: real time    2.8899
       DOS:  cpu time    0.0003: real time    0.0004
    --------------------------------------------
      LOOP:  cpu time    3.0074: real time    3.0875

 eigenvalue-minimisations  :   984
 total energy-change (2. order) : 0.1673979E+04  (-0.6978774E+04)
 number of electron     206.0000000 magnetization 
 augmentation part      206.0000000 magnetization 

 Free energy of the ion-electron system (eV)
  ---------------------------------------------------
  alpha Z        PSCENC =        82.54348252
  Ewald energy   TEWEN  =     34516.53794683
  -Hartree energ DENC   =    -40148.34394632
  -exchange      EXHF   =         0.00000000
  -V(xc)+E(xc)   XCENC  =       690.61220077
  PAW double counting   =      5772.65179589    -5802.92075699
  entropy T*S    EENTRO =        -0.00893520
  eigenvalues    EBANDS =     -1225.71702850
  atomic energy  EATOM  =      7788.62438962
  Solvation  Ediel_sol  =         0.00000000
  ---------------------------------------------------
  free energy    TOTEN  =      1673.97914861 eV

  energy without entropy =     1673.98808381  energy(sigma->0) =     1673.98361621


--------------------------------------------------------------------------------------------------------




--------------------------------------- Iteration      1(   2)  ---------------------------------------


     EDDAV:  cpu time    3.1217: real time    3.1553
       DOS:  cpu time    0.0003: real time    0.0003
    --------------------------------------------
      LOOP:  cpu time    3.1220: real time    3.1556

 eigenvalue-minimisations  :  1188
 total energy-change (2. order) :-0.1808530E+04  (-0.1724795E+04)
 number of electron     206.0000000 magnetization 
 augmentation part      206.0000000 magnetization 

 Free energy of the ion-electron system (eV)
  ---------------------------------------------------
  alpha Z        PSCENC =        82.54348252
  Ewald energy   TEWEN  =     34516.53794683
  -Hartree energ DENC   =    -40148.34394632
  -exchange      EXHF   =         0.00000000
  -V(xc)+E(xc)   XCENC  =       690.61220077
  PAW double counting   =      5772.65179589    -5802.92075699
  entropy T*S    EENTRO =        -0.00748676
  eigenvalues    EBANDS =     -3034.24837330
  atomic energy  EATOM  =      7788.62438962
  Solvation  Ediel_sol  =         0.00000000
  ---------------------------------------------------
  free energy    TOTEN  =      -134.55074775 eV

  energy without entropy =     -134.54326099  energy(sigma->0) =     -134.54700437


--------------------------------------------------------------------------------------------------------




--------------------------------------- Iteration      1(   3)  ---------------------------------------


     EDDAV:  cpu time    2.6907: real time    2.7241
       DOS:  cpu time    0.0002: real time    0.0002
    --------------------------------------------
      LOOP:  cpu time    2.6908: real time    2.7243

 eigenvalue-minimisations  :   984
 total energy-change (2. order) :-0.3413978E+03  (-0.3393053E+03)
 number of electron     206.0000000 magnetization 
 augmentation part      206.0000000 magnetization 

 Free energy of the ion-electron system (eV)
  ---------------------------------------------------
  alpha Z        PSCENC =        82.54348252
  Ewald energy   TEWEN  =     34516.53794683
  -Hartree energ DENC   =    -40148.34394632
  -exchange      EXHF   =         0.00000000
  -V(xc)+E(xc)   XCENC  =       690.61220077
  PAW double counting   =      5772.65179589    -5802.92075699
  entropy T*S    EENTRO =        -0.00000000
  eigenvalues    EBANDS =     -3375.65368907
  atomic energy  EATOM  =      7788.62438962
  Solvation  Ediel_sol  =         0.00000000
  ---------------------------------------------------
  free energy    TOTEN  =      -475.94857675 eV

  energy without entropy =     -475.94857675  energy(sigma->0) =     -475.94857675


--------------------------------------------------------------------------------------------------------




--------------------------------------- Iteration      1(   4)  ---------------------------------------


     EDDAV:  cpu time    2.6454: real time    2.6731
       DOS:  cpu time    0.0002: real time    0.0002
    --------------------------------------------
      LOOP:  cpu time    2.6455: real time    2.6733

 eigenvalue-minimisations  :   960
 total energy-change (2. order) :-0.1190150E+02  (-0.1168245E+02)
 number of electron     206.0000000 magnetization 
 augmentation part      206.0000000 magnetization 

 Free energy of the ion-electron system (eV)
  ---------------------------------------------------
  alpha Z        PSCENC =        82.54348252
  Ewald energy   TEWEN  =     34516.53794683
  -Hartree energ DENC   =    -40148.34394632
  -exchange      EXHF   =         0.00000000
  -V(xc)+E(xc)   XCENC  =       690.61220077
  PAW double counting   =      5772.65179589    -5802.92075699
  entropy T*S    EENTRO =        -0.00000000
  eigenvalues    EBANDS =     -3387.55519136
  atomic energy  EATOM  =      7788.62438962
  Solvation  Ediel_sol  =         0.00000000
  ---------------------------------------------------
  free energy    TOTEN  =      -487.85007904 eV

  energy without entropy =     -487.85007904  energy(sigma->0) =     -487.85007904


--------------------------------------------------------------------------------------------------------




--------------------------------------- Iteration      1(   5)  ---------------------------------------


     EDDAV:  cpu time    2.8234: real time    2.8528
       DOS:  cpu time    0.0002: real time    0.0002
    CHARGE:  cpu time    0.2616: real time    0.2645
    MIXING:  cpu time    0.0064: real time    0.0067
    --------------------------------------------
      LOOP:  cpu time    3.0917: real time    3.1241

 eigenvalue-minimisations  :  1044
 total energy-change (2. order) :-0.3667605E+00  (-0.3635260E+00)
 number of electron     206.0000000 magnetization 
 augmentation part        6.2015461 magnetization 

 Broyden mixing:
  rms(total) = 0.33806E+01    rms(broyden)= 0.33798E+01
  rms(prec ) = 0.36050E+01
  weight for this iteration     100.00

 Free energy of the ion-electron system (eV)
  ---------------------------------------------------
  alpha Z        PSCENC =        82.54348252
  Ewald energy   TEWEN  =     34516.53794683
  -Hartree energ DENC   =    -40148.34394632
  -exchange      EXHF   =         0.00000000
  -V(xc)+E(xc)   XCENC  =       690.61220077
  PAW double counting   =      5772.65179589    -5802.92075699
  entropy T*S    EENTRO =        -0.00000000
  eigenvalues    EBANDS =     -3387.92195188
  atomic energy  EATOM  =      7788.62438962
  Solvation  Ediel_sol  =         0.00000000
  ---------------------------------------------------
  free energy    TOTEN  =      -488.21683956 eV

  energy without entropy =     -488.21683956  energy(sigma->0) =     -488.21683956


--------------------------------------------------------------------------------------------------------




--------------------------------------- Iteration      1(   6)  ---------------------------------------


    POTLOK:  cpu time    0.0938: real time    0.0959
    SETDIJ:  cpu time    0.0782: real time    0.0802
    EDDIAG:  cpu time    0.4689: real time    0.4744
  RMM-DIIS:  cpu time    2.3049: real time    2.3323
    ORTHCH:  cpu time    0.0247: real time    0.0250
       DOS:  cpu time    0.0003: real time    0.0003
    CHARGE:  cpu time    0.2598: real time    0.2623
    MIXING:  cpu time    0.0063: real time    0.0063
    --------------------------------------------
      LOOP:  cpu time    3.2368: real time    3.2766

 eigenvalue-minimisations  :   864
 total energy-change (2. order) : 0.2434564E+02  (-0.2694319E+01)
 number of electron     206.0000000 magnetization 
 augmentation part        5.7740888 magnetization 

 Broyden mixing:
  rms(total) = 0.20041E+01    rms(broyden)= 0.20032E+01
  rms(prec ) = 0.21309E+01
  weight for this iteration     100.00

 eigenvalues of (default mixing * dielectric matrix)
  average eigenvalue GAMMA=   1.5463
  1.5463

 Free energy of the ion-electron system (eV)
  ---------------------------------------------------
  alpha Z        PSCENC =        82.54348252
  Ewald energy   TEWEN  =     34516.53794683
  -Hartree energ DENC   =    -40451.46395946
  -exchange      EXHF   =         0.00000000
  -V(xc)+E(xc)   XCENC  =       703.68973418
  PAW double counting   =     10722.25036902   -10756.64317363
  entropy T*S    EENTRO =        -0.01264543
  eigenvalues    EBANDS =     -3069.39734115
  atomic energy  EATOM  =      7788.62438962
  Solvation  Ediel_sol  =         0.00000000
  ---------------------------------------------------
  free energy    TOTEN  =      -463.87119750 eV

  energy without entropy =     -463.85855207  energy(sigma->0) =     -463.86487478


--------------------------------------------------------------------------------------------------------




--------------------------------------- Iteration      1(   7)  ---------------------------------------


    POTLOK:  cpu time    0.0929: real time    0.0941
    SETDIJ:  cpu time    0.0782: real time    0.0788
    EDDIAG:  cpu time    0.4703: real time    0.4758
  RMM-DIIS:  cpu time    2.3260: real time    2.3492
    ORTHCH:  cpu time    0.0247: real time    0.0250
       DOS:  cpu time    0.0003: real time    0.0003
    CHARGE:  cpu time    0.2595: real time    0.2620
    MIXING:  cpu time    0.0056: real time    0.0056
    --------------------------------------------
      LOOP:  cpu time    3.2575: real time    3.2908

 eigenvalue-minimisations  :   878
 total energy-change (2. order) : 0.6816003E+01  (-0.2326307E+01)
 number of electron     206.0000000 magnetization 
 augmentation part        5.8022533 magnetization 

 Broyden mixing:
  rms(total) = 0.11570E+01    rms(broyden)= 0.11555E+01
  rms(prec ) = 0.12488E+01
  weight for this iteration     100.00

 eigenvalues of (default mixing * dielectric matrix)
  average eigenvalue GAMMA=   1.4487
  2.2888  0.6086

 Free energy of the ion-electron system (eV)
  ---------------------------------------------------
  alpha Z        PSCENC =        82.54348252
  Ewald energy   TEWEN  =     34516.53794683
  -Hartree energ DENC   =    -40699.44601135
  -exchange      EXHF   =         0.00000000
  -V(xc)+E(xc)   XCENC  =       714.14195617
  PAW double counting   =     16985.09811989   -17021.61334046
  entropy T*S    EENTRO =        -0.00000000
  eigenvalues    EBANDS =     -2822.94173747
  atomic energy  EATOM  =      7788.62438962
  Solvation  Ediel_sol  =         0.00000000
  ---------------------------------------------------
  free energy    TOTEN  =      -457.05519424 eV

  energy without entropy =     -457.05519424  energy(sigma->0) =     -457.05519424


--------------------------------------------------------------------------------------------------------




--------------------------------------- Iteration      1(   8)  ---------------------------------------


    POTLOK:  cpu time    0.0997: real time    0.1008
    SETDIJ:  cpu time    0.0782: real time    0.0788
    EDDIAG:  cpu time    0.4663: real time    0.4708
  RMM-DIIS:  cpu time    2.3738: real time    2.3965
    ORTHCH:  cpu time    0.0316: real time    0.0319
       DOS:  cpu time    0.0002: real time    0.0002
    CHARGE:  cpu time    0.2584: real time    0.2612
    MIXING:  cpu time    0.0057: real time    0.0057
    --------------------------------------------
      LOOP:  cpu time    3.3139: real time    3.3459

 eigenvalue-minimisations  :   887
 total energy-change (2. order) : 0.2466813E+01  (-0.7129481E+00)
 number of electron     206.0000000 magnetization 
 augmentation part        5.6003609 magnetization 

 Broyden mixing:
  rms(total) = 0.43877E+00    rms(broyden)= 0.43845E+00
  rms(prec ) = 0.47026E+00
  weight for this iteration     100.00

 eigenvalues of (default mixing * dielectric matrix)
  average eigenvalue GAMMA=   1.5228
  2.2551  1.6633  0.6502

 Free energy of the ion-electron system (eV)
  ---------------------------------------------------
  alpha Z        PSCENC =        82.54348252
  Ewald energy   TEWEN  =     34516.53794683
  -Hartree energ DENC   =    -40863.00615888
  -exchange      EXHF   =         0.00000000
  -V(xc)+E(xc)   XCENC  =       720.63691413
  PAW double counting   =     21310.43870996   -21348.00126023
  entropy T*S    EENTRO =        -0.00000000
  eigenvalues    EBANDS =     -2662.36240536
  atomic energy  EATOM  =      7788.62438962
  Solvation  Ediel_sol  =         0.00000000
  ---------------------------------------------------
  free energy    TOTEN  =      -454.58838141 eV

  energy without entropy =     -454.58838141  energy(sigma->0) =     -454.58838141


--------------------------------------------------------------------------------------------------------




--------------------------------------- Iteration      1(   9)  ---------------------------------------


    POTLOK:  cpu time    0.0936: real time    0.0948
    SETDIJ:  cpu time    0.0785: real time    0.0811
    EDDIAG:  cpu time    0.4663: real time    0.4705
  RMM-DIIS:  cpu time    2.4885: real time    2.5162
    ORTHCH:  cpu time    0.0251: real time    0.0254
       DOS:  cpu time    0.0003: real time    0.0003
    CHARGE:  cpu time    0.2597: real time    0.2622
    MIXING:  cpu time    0.0063: real time    0.0063
    --------------------------------------------
      LOOP:  cpu time    3.4183: real time    3.4570

 eigenvalue-minimisations  :   933
 total energy-change (2. order) : 0.1262236E+00  (-0.1101104E+00)
 number of electron     206.0000000 magnetization 
 augmentation part        5.5092863 magnetization 

 Broyden mixing:
  rms(total) = 0.28201E+00    rms(broyden)= 0.28085E+00
  rms(prec ) = 0.31591E+00
  weight for this iteration     100.00

 eigenvalues of (default mixing * dielectric matrix)
  average eigenvalue GAMMA=   1.5310
  2.3368  2.3368  0.7251  0.7251

 Free energy of the ion-electron system (eV)
  ---------------------------------------------------
  alpha Z        PSCENC =        82.54348252
  Ewald energy   TEWEN  =     34516.53794683
  -Hartree energ DENC   =    -40895.93506699
  -exchange      EXHF   =         0.00000000
  -V(xc)+E(xc)   XCENC  =       720.61598487
  PAW double counting   =     22387.60302198   -22424.41180723
  entropy T*S    EENTRO =        -0.00832896
  eigenvalues    EBANDS =     -2630.03178042
  atomic energy  EATOM  =      7788.62438962
  Solvation  Ediel_sol  =         0.00000000
  ---------------------------------------------------
  free energy    TOTEN  =      -454.46215777 eV

  energy without entropy =     -454.45382881  energy(sigma->0) =     -454.45799329


--------------------------------------------------------------------------------------------------------




--------------------------------------- Iteration      1(  10)  ---------------------------------------


    POTLOK:  cpu time    0.0938: real time    0.0966
    SETDIJ:  cpu time    0.0785: real time    0.0804
    EDDIAG:  cpu time    0.4693: real time    0.4749
  RMM-DIIS:  cpu time    2.4465: real time    2.4701
    ORTHCH:  cpu time    0.0249: real time    0.0249
       DOS:  cpu time    0.0003: real time    0.0003
    CHARGE:  cpu time    0.2646: real time    0.2673
    MIXING:  cpu time    0.0058: real time    0.0061
    --------------------------------------------
      LOOP:  cpu time    3.3836: real time    3.4207

 eigenvalue-minimisations  :   899
 total energy-change (2. order) : 0.1389639E+00  (-0.1665285E-01)
 number of electron     206.0000000 magnetization 
 augmentation part        5.5561796 magnetization 

 Broyden mixing:
  rms(total) = 0.42542E-01    rms(broyden)= 0.41741E-01
  rms(prec ) = 0.71601E-01
  weight for this iteration     100.00

 eigenvalues of (default mixing * dielectric matrix)
  average eigenvalue GAMMA=   1.4210
  2.2457  2.2457  1.1800  0.7167  0.7167

 Free energy of the ion-electron system (eV)
  ---------------------------------------------------
  alpha Z        PSCENC =        82.54348252
  Ewald energy   TEWEN  =     34516.53794683
  -Hartree energ DENC   =    -40918.87172413
  -exchange      EXHF   =         0.00000000
  -V(xc)+E(xc)   XCENC  =       720.46127582
  PAW double counting   =     22917.56347473   -22953.86940771
  entropy T*S    EENTRO =        -0.00009319
  eigenvalues    EBANDS =     -2607.31253836
  atomic energy  EATOM  =      7788.62438962
  Solvation  Ediel_sol  =         0.00000000
  ---------------------------------------------------
  free energy    TOTEN  =      -454.32319386 eV

  energy without entropy =     -454.32310067  energy(sigma->0) =     -454.32314727


--------------------------------------------------------------------------------------------------------




--------------------------------------- Iteration      1(  11)  ---------------------------------------


    POTLOK:  cpu time    0.0939: real time    0.0947
    SETDIJ:  cpu time    0.0779: real time    0.0788
    EDDIAG:  cpu time    0.4628: real time    0.4672
  RMM-DIIS:  cpu time    2.5140: real time    2.5383
    ORTHCH:  cpu time    0.0247: real time    0.0250
       DOS:  cpu time    0.0003: real time    0.0003
    CHARGE:  cpu time    0.2594: real time    0.2619
    MIXING:  cpu time    0.0056: real time    0.0056
    --------------------------------------------
      LOOP:  cpu time    3.4388: real time    3.4718

 eigenvalue-minimisations  :   922
 total energy-change (2. order) : 0.8934187E-02  (-0.1623576E-02)
 number of electron     206.0000000 magnetization 
 augmentation part        5.5530585 magnetization 

 Broyden mixing:
  rms(total) = 0.27828E-01    rms(broyden)= 0.27769E-01
  rms(prec ) = 0.55814E-01
  weight for this iteration     100.00

 eigenvalues of (default mixing * dielectric matrix)
  average eigenvalue GAMMA=   1.6197
  2.6151  2.6151  2.1032  0.7314  0.7314  0.9219

 Free energy of the ion-electron system (eV)
  ---------------------------------------------------
  alpha Z        PSCENC =        82.54348252
  Ewald energy   TEWEN  =     34516.53794683
  -Hartree energ DENC   =    -40938.38541647
  -exchange      EXHF   =         0.00000000
  -V(xc)+E(xc)   XCENC  =       720.76539569
  PAW double counting   =     22875.84037254   -22912.21951597
  entropy T*S    EENTRO =        -0.00008462
  eigenvalues    EBANDS =     -2588.02082981
  atomic energy  EATOM  =      7788.62438962
  Solvation  Ediel_sol  =         0.00000000
  ---------------------------------------------------
  free energy    TOTEN  =      -454.31425967 eV

  energy without entropy =     -454.31417505  energy(sigma->0) =     -454.31421736


--------------------------------------------------------------------------------------------------------




--------------------------------------- Iteration      1(  12)  ---------------------------------------


    POTLOK:  cpu time    0.0941: real time    0.0952
    SETDIJ:  cpu time    0.0800: real time    0.0806
    EDDIAG:  cpu time    0.4678: real time    0.4722
  RMM-DIIS:  cpu time    2.3459: real time    2.3757
    ORTHCH:  cpu time    0.0249: real time    0.0252
       DOS:  cpu time    0.0003: real time    0.0003
    CHARGE:  cpu time    0.2596: real time    0.2620
    MIXING:  cpu time    0.0059: real time    0.0059
    --------------------------------------------
      LOOP:  cpu time    3.2786: real time    3.3171

 eigenvalue-minimisations  :   875
 total energy-change (2. order) : 0.8413680E-02  (-0.3046308E-02)
 number of electron     206.0000000 magnetization 
 augmentation part        5.5496266 magnetization 

 Broyden mixing:
  rms(total) = 0.22800E-01    rms(broyden)= 0.22783E-01
  rms(prec ) = 0.34006E-01
  weight for this iteration     100.00

 eigenvalues of (default mixing * dielectric matrix)
  average eigenvalue GAMMA=   1.6642
  3.3232  2.3744  1.7447  1.7447  0.7271  0.7271  1.0082

 Free energy of the ion-electron system (eV)
  ---------------------------------------------------
  alpha Z        PSCENC =        82.54348252
  Ewald energy   TEWEN  =     34516.53794683
  -Hartree energ DENC   =    -40987.23557188
  -exchange      EXHF   =         0.00000000
  -V(xc)+E(xc)   XCENC  =       721.22806928
  PAW double counting   =     22768.89355653   -22805.26764110
  entropy T*S    EENTRO =        -0.00007493
  eigenvalues    EBANDS =     -2539.63000286
  atomic energy  EATOM  =      7788.62438962
  Solvation  Ediel_sol  =         0.00000000
  ---------------------------------------------------
  free energy    TOTEN  =      -454.30584599 eV

  energy without entropy =     -454.30577106  energy(sigma->0) =     -454.30580853


--------------------------------------------------------------------------------------------------------




--------------------------------------- Iteration      1(  13)  ---------------------------------------


    POTLOK:  cpu time    0.0941: real time    0.0952
    SETDIJ:  cpu time    0.0862: real time    0.0875
    EDDIAG:  cpu time    0.4654: real time    0.4696
  RMM-DIIS:  cpu time    2.3564: real time    2.3785
    ORTHCH:  cpu time    0.0252: real time    0.0256
       DOS:  cpu time    0.0003: real time    0.0003
    CHARGE:  cpu time    0.2615: real time    0.2643
    MIXING:  cpu time    0.0059: real time    0.0059
    --------------------------------------------
      LOOP:  cpu time    3.2951: real time    3.3269

 eigenvalue-minimisations  :   881
 total energy-change (2. order) :-0.4951507E-02  (-0.7807983E-03)
 number of electron     206.0000000 magnetization 
 augmentation part        5.5438309 magnetization 

 Broyden mixing:
  rms(total) = 0.18929E-01    rms(broyden)= 0.18890E-01
  rms(prec ) = 0.25035E-01
  weight for this iteration     100.00

 eigenvalues of (default mixing * dielectric matrix)
  average eigenvalue GAMMA=   1.8722
  4.7093  2.5617  2.2398  2.0035  0.7253  0.7253  1.0065  1.0065

 Free energy of the ion-electron system (eV)
  ---------------------------------------------------
  alpha Z        PSCENC =        82.54348252
  Ewald energy   TEWEN  =     34516.53794683
  -Hartree energ DENC   =    -41008.85443046
  -exchange      EXHF   =         0.00000000
  -V(xc)+E(xc)   XCENC  =       721.33879987
  PAW double counting   =     22829.51018582   -22865.82433697
  entropy T*S    EENTRO =        -0.00020083
  eigenvalues    EBANDS =     -2518.18663390
  atomic energy  EATOM  =      7788.62438962
  Solvation  Ediel_sol  =         0.00000000
  ---------------------------------------------------
  free energy    TOTEN  =      -454.31079750 eV

  energy without entropy =     -454.31059667  energy(sigma->0) =     -454.31069709


--------------------------------------------------------------------------------------------------------




--------------------------------------- Iteration      1(  14)  ---------------------------------------


    POTLOK:  cpu time    0.0929: real time    0.0940
    SETDIJ:  cpu time    0.0784: real time    0.0790
    EDDIAG:  cpu time    0.4649: real time    0.4692
  RMM-DIIS:  cpu time    2.3598: real time    2.3829
    ORTHCH:  cpu time    0.0249: real time    0.0249
       DOS:  cpu time    0.0003: real time    0.0003
    CHARGE:  cpu time    0.2598: real time    0.2622
    MIXING:  cpu time    0.0062: real time    0.0065
    --------------------------------------------
      LOOP:  cpu time    3.2873: real time    3.3190

 eigenvalue-minimisations  :   863
 total energy-change (2. order) :-0.8578279E-02  (-0.4650767E-03)
 number of electron     206.0000000 magnetization 
 augmentation part        5.5439064 magnetization 

 Broyden mixing:
  rms(total) = 0.74696E-02    rms(broyden)= 0.74579E-02
  rms(prec ) = 0.10151E-01
  weight for this iteration     100.00

 eigenvalues of (default mixing * dielectric matrix)
  average eigenvalue GAMMA=   1.9441
  5.7503  2.4550  2.0456  2.0456  1.7841  0.7255  0.7255  1.0087  0.9570

 Free energy of the ion-electron system (eV)
  ---------------------------------------------------
  alpha Z        PSCENC =        82.54348252
  Ewald energy   TEWEN  =     34516.53794683
  -Hartree energ DENC   =    -41027.18009431
  -exchange      EXHF   =         0.00000000
  -V(xc)+E(xc)   XCENC  =       721.43273034
  PAW double counting   =     22769.23548630   -22805.57756833
  entropy T*S    EENTRO =        -0.00013409
  eigenvalues    EBANDS =     -2499.93561465
  atomic energy  EATOM  =      7788.62438962
  Solvation  Ediel_sol  =         0.00000000
  ---------------------------------------------------
  free energy    TOTEN  =      -454.31937578 eV

  energy without entropy =     -454.31924169  energy(sigma->0) =     -454.31930873


--------------------------------------------------------------------------------------------------------




--------------------------------------- Iteration      1(  15)  ---------------------------------------


    POTLOK:  cpu time    0.0933: real time    0.0941
    SETDIJ:  cpu time    0.0792: real time    0.0811
    EDDIAG:  cpu time    0.4719: real time    0.4765
  RMM-DIIS:  cpu time    2.4536: real time    2.4810
    ORTHCH:  cpu time    0.0255: real time    0.0256
       DOS:  cpu time    0.0003: real time    0.0003
    CHARGE:  cpu time    0.2631: real time    0.2632
    MIXING:  cpu time    0.0068: real time    0.0068
    --------------------------------------------
      LOOP:  cpu time    3.3937: real time    3.4285

 eigenvalue-minimisations  :   920
 total energy-change (2. order) :-0.6953130E-02  (-0.7985206E-04)
 number of electron     206.0000000 magnetization 
 augmentation part        5.5449234 magnetization 

 Broyden mixing:
  rms(total) = 0.43354E-02    rms(broyden)= 0.43128E-02
  rms(prec ) = 0.63560E-02
  weight for this iteration     100.00

 eigenvalues of (default mixing * dielectric matrix)
  average eigenvalue GAMMA=   2.1055
  7.1654  3.1299  2.3309  2.2189  1.4231  1.4231  0.7254  0.7254  0.9563  0.9563

 Free energy of the ion-electron system (eV)
  ---------------------------------------------------
  alpha Z        PSCENC =        82.54348252
  Ewald energy   TEWEN  =     34516.53794683
  -Hartree energ DENC   =    -41030.16284359
  -exchange      EXHF   =         0.00000000
  -V(xc)+E(xc)   XCENC  =       721.41160532
  PAW double counting   =     22778.60017471   -22814.92773405
  entropy T*S    EENTRO =        -0.00010241
  eigenvalues    EBANDS =     -2496.95324785
  atomic energy  EATOM  =      7788.62438962
  Solvation  Ediel_sol  =         0.00000000
  ---------------------------------------------------
  free energy    TOTEN  =      -454.32632891 eV

  energy without entropy =     -454.32622649  energy(sigma->0) =     -454.32627770


--------------------------------------------------------------------------------------------------------




--------------------------------------- Iteration      1(  16)  ---------------------------------------


    POTLOK:  cpu time    0.0949: real time    0.0967
    SETDIJ:  cpu time    0.0875: real time    0.0895
    EDDIAG:  cpu time    0.4680: real time    0.4682
  RMM-DIIS:  cpu time    2.3590: real time    2.3610
    ORTHCH:  cpu time    0.0250: real time    0.0250
       DOS:  cpu time    0.0003: real time    0.0003
    CHARGE:  cpu time    0.2684: real time    0.2689
    MIXING:  cpu time    0.0060: real time    0.0060
    --------------------------------------------
      LOOP:  cpu time    3.3091: real time    3.3156

 eigenvalue-minimisations  :   857
 total energy-change (2. order) :-0.9189362E-02  (-0.9223367E-04)
 number of electron     206.0000000 magnetization 
 augmentation part        5.5446457 magnetization 

 Broyden mixing:
  rms(total) = 0.26584E-02    rms(broyden)= 0.26578E-02
  rms(prec ) = 0.34249E-02
  weight for this iteration     100.00

 eigenvalues of (default mixing * dielectric matrix)
  average eigenvalue GAMMA=   2.1978
  7.5221  3.5684  2.4909  2.4909  2.2405  1.2630  1.2630  0.7255  0.7255  0.9531
  0.9328

 Free energy of the ion-electron system (eV)
  ---------------------------------------------------
  alpha Z        PSCENC =        82.54348252
  Ewald energy   TEWEN  =     34516.53794683
  -Hartree energ DENC   =    -41033.01610603
  -exchange      EXHF   =         0.00000000
  -V(xc)+E(xc)   XCENC  =       721.38816029
  PAW double counting   =     22784.01675477   -22820.34427003
  entropy T*S    EENTRO =        -0.00010928
  eigenvalues    EBANDS =     -2494.08576696
  atomic energy  EATOM  =      7788.62438962
  Solvation  Ediel_sol  =         0.00000000
  ---------------------------------------------------
  free energy    TOTEN  =      -454.33551827 eV

  energy without entropy =     -454.33540899  energy(sigma->0) =     -454.33546363


--------------------------------------------------------------------------------------------------------




--------------------------------------- Iteration      1(  17)  ---------------------------------------


    POTLOK:  cpu time    0.0950: real time    0.0953
    SETDIJ:  cpu time    0.0796: real time    0.0799
    EDDIAG:  cpu time    0.4686: real time    0.4688
  RMM-DIIS:  cpu time    2.0165: real time    2.0182
    ORTHCH:  cpu time    0.0250: real time    0.0250
       DOS:  cpu time    0.0003: real time    0.0003
    CHARGE:  cpu time    0.2669: real time    0.2673
    MIXING:  cpu time    0.0069: real time    0.0069
    --------------------------------------------
      LOOP:  cpu time    2.9587: real time    2.9617

 eigenvalue-minimisations  :   727
 total energy-change (2. order) :-0.3845338E-02  (-0.5476611E-04)
 number of electron     206.0000000 magnetization 
 augmentation part        5.5442309 magnetization 

 Broyden mixing:
  rms(total) = 0.15827E-02    rms(broyden)= 0.15801E-02
  rms(prec ) = 0.18396E-02
  weight for this iteration     100.00

 eigenvalues of (default mixing * dielectric matrix)
  average eigenvalue GAMMA=   2.2550
  8.1293  4.4120  2.7554  2.2992  2.1275  1.4514  1.4514  0.7255  0.7255  1.0705
  1.0015  0.9106

 Free energy of the ion-electron system (eV)
  ---------------------------------------------------
  alpha Z        PSCENC =        82.54348252
  Ewald energy   TEWEN  =     34516.53794683
  -Hartree energ DENC   =    -41033.76158877
  -exchange      EXHF   =         0.00000000
  -V(xc)+E(xc)   XCENC  =       721.38553702
  PAW double counting   =     22776.33408715   -22812.66679056
  entropy T*S    EENTRO =        -0.00011592
  eigenvalues    EBANDS =     -2493.33631149
  atomic energy  EATOM  =      7788.62438962
  Solvation  Ediel_sol  =         0.00000000
  ---------------------------------------------------
  free energy    TOTEN  =      -454.33936361 eV

  energy without entropy =     -454.33924769  energy(sigma->0) =     -454.33930565


--------------------------------------------------------------------------------------------------------




--------------------------------------- Iteration      1(  18)  ---------------------------------------


    POTLOK:  cpu time    0.0952: real time    0.0954
    SETDIJ:  cpu time    0.0789: real time    0.0789
    EDDIAG:  cpu time    0.4684: real time    0.4687
  RMM-DIIS:  cpu time    2.0666: real time    2.0683
    ORTHCH:  cpu time    0.0250: real time    0.0250
       DOS:  cpu time    0.0003: real time    0.0003
    CHARGE:  cpu time    0.2645: real time    0.2686
    MIXING:  cpu time    0.0066: real time    0.0066
    --------------------------------------------
      LOOP:  cpu time    3.0056: real time    3.0118

 eigenvalue-minimisations  :   727
 total energy-change (2. order) :-0.6516596E-03  (-0.8907902E-05)
 number of electron     206.0000000 magnetization 
 augmentation part        5.5443769 magnetization 

 Broyden mixing:
  rms(total) = 0.58625E-03    rms(broyden)= 0.58604E-03
  rms(prec ) = 0.82512E-03
  weight for this iteration     100.00

 eigenvalues of (default mixing * dielectric matrix)
  average eigenvalue GAMMA=   2.2686
  8.2809  4.9132  2.6457  2.3465  2.3465  2.0696  1.2554  1.2554  0.7255  0.7255
  1.0540  0.9366  0.9366

 Free energy of the ion-electron system (eV)
  ---------------------------------------------------
  alpha Z        PSCENC =        82.54348252
  Ewald energy   TEWEN  =     34516.53794683
  -Hartree energ DENC   =    -41034.16304366
  -exchange      EXHF   =         0.00000000
  -V(xc)+E(xc)   XCENC  =       721.38036328
  PAW double counting   =     22782.53804715   -22818.86628286
  entropy T*S    EENTRO =        -0.00011430
  eigenvalues    EBANDS =     -2492.93480385
  atomic energy  EATOM  =      7788.62438962
  Solvation  Ediel_sol  =         0.00000000
  ---------------------------------------------------
  free energy    TOTEN  =      -454.34001527 eV

  energy without entropy =     -454.33990096  energy(sigma->0) =     -454.33995812


--------------------------------------------------------------------------------------------------------




--------------------------------------- Iteration      1(  19)  ---------------------------------------


    POTLOK:  cpu time    0.0948: real time    0.0950
    SETDIJ:  cpu time    0.0783: real time    0.0784
    EDDIAG:  cpu time    0.4687: real time    0.4689
  RMM-DIIS:  cpu time    1.9058: real time    1.9078
    ORTHCH:  cpu time    0.0251: real time    0.0251
       DOS:  cpu time    0.0003: real time    0.0003
    CHARGE:  cpu time    0.2642: real time    0.2647
    MIXING:  cpu time    0.0069: real time    0.0069
    --------------------------------------------
      LOOP:  cpu time    2.8441: real time    2.8471

 eigenvalue-minimisations  :   686
 total energy-change (2. order) :-0.2832071E-03  (-0.2712705E-05)
 number of electron     206.0000000 magnetization 
 augmentation part        5.5443070 magnetization 

 Broyden mixing:
  rms(total) = 0.38772E-03    rms(broyden)= 0.38731E-03
  rms(prec ) = 0.56536E-03
  weight for this iteration     100.00

 eigenvalues of (default mixing * dielectric matrix)
  average eigenvalue GAMMA=   2.2439
  8.4298  5.0385  2.8841  2.5072  1.9791  1.9791  1.8866  0.7255  0.7255  1.1690
  1.1690  1.0607  0.9234  0.9374

 Free energy of the ion-electron system (eV)
  ---------------------------------------------------
  alpha Z        PSCENC =        82.54348252
  Ewald energy   TEWEN  =     34516.53794683
  -Hartree energ DENC   =    -41034.30108607
  -exchange      EXHF   =         0.00000000
  -V(xc)+E(xc)   XCENC  =       721.38010394
  PAW double counting   =     22782.31552942   -22818.64484963
  entropy T*S    EENTRO =        -0.00011558
  eigenvalues    EBANDS =     -2492.79569953
  atomic energy  EATOM  =      7788.62438962
  Solvation  Ediel_sol  =         0.00000000
  ---------------------------------------------------
  free energy    TOTEN  =      -454.34029847 eV

  energy without entropy =     -454.34018290  energy(sigma->0) =     -454.34024069


--------------------------------------------------------------------------------------------------------




--------------------------------------- Iteration      1(  20)  ---------------------------------------


    POTLOK:  cpu time    0.0944: real time    0.0946
    SETDIJ:  cpu time    0.0851: real time    0.0852
    EDDIAG:  cpu time    0.4675: real time    0.4677
  RMM-DIIS:  cpu time    1.6486: real time    1.6500
    ORTHCH:  cpu time    0.0250: real time    0.0250
       DOS:  cpu time    0.0003: real time    0.0003
    CHARGE:  cpu time    0.2622: real time    0.2623
    MIXING:  cpu time    0.0068: real time    0.0068
    --------------------------------------------
      LOOP:  cpu time    2.5899: real time    2.5918

 eigenvalue-minimisations  :   567
 total energy-change (2. order) :-0.1161554E-03  (-0.8893059E-06)
 number of electron     206.0000000 magnetization 
 augmentation part        5.5443345 magnetization 

 Broyden mixing:
  rms(total) = 0.17568E-03    rms(broyden)= 0.17553E-03
  rms(prec ) = 0.31579E-03
  weight for this iteration     100.00

 eigenvalues of (default mixing * dielectric matrix)
  average eigenvalue GAMMA=   2.2492
  8.4013  5.3671  3.1334  2.5383  2.4242  2.0340  1.8453  0.7255  0.7255  1.1566
  1.1566  1.2382  0.9461  0.9461  1.0996

 Free energy of the ion-electron system (eV)
  ---------------------------------------------------
  alpha Z        PSCENC =        82.54348252
  Ewald energy   TEWEN  =     34516.53794683
  -Hartree energ DENC   =    -41034.46662296
  -exchange      EXHF   =         0.00000000
  -V(xc)+E(xc)   XCENC  =       721.37901078
  PAW double counting   =     22780.76391644   -22817.09281478
  entropy T*S    EENTRO =        -0.00011465
  eigenvalues    EBANDS =     -2492.62960843
  atomic energy  EATOM  =      7788.62438962
  Solvation  Ediel_sol  =         0.00000000
  ---------------------------------------------------
  free energy    TOTEN  =      -454.34041463 eV

  energy without entropy =     -454.34029998  energy(sigma->0) =     -454.34035730


--------------------------------------------------------------------------------------------------------




--------------------------------------- Iteration      1(  21)  ---------------------------------------


    POTLOK:  cpu time    0.0942: real time    0.0944
    SETDIJ:  cpu time    0.0790: real time    0.0790
    EDDIAG:  cpu time    0.4708: real time    0.4715
  RMM-DIIS:  cpu time    1.4631: real time    1.4640
    ORTHCH:  cpu time    0.0248: real time    0.0248
       DOS:  cpu time    0.0003: real time    0.0003
    CHARGE:  cpu time    0.2645: real time    0.2650
    MIXING:  cpu time    0.0065: real time    0.0065
    --------------------------------------------
      LOOP:  cpu time    2.4032: real time    2.4056

 eigenvalue-minimisations  :   412
 total energy-change (2. order) :-0.6231353E-04  (-0.4861042E-06)
 number of electron     206.0000000 magnetization 
 augmentation part        5.5443415 magnetization 

 Broyden mixing:
  rms(total) = 0.11307E-03    rms(broyden)= 0.11263E-03
  rms(prec ) = 0.19489E-03
  weight for this iteration     100.00

 eigenvalues of (default mixing * dielectric matrix)
  average eigenvalue GAMMA=   2.2896
  8.4427  5.6068  3.8164  2.6515  2.2621  2.1688  2.1688  1.6768  0.7255  0.7255
  1.2473  1.1286  1.1286  0.9411  0.9411  1.0017

 Free energy of the ion-electron system (eV)
  ---------------------------------------------------
  alpha Z        PSCENC =        82.54348252
  Ewald energy   TEWEN  =     34516.53794683
  -Hartree energ DENC   =    -41034.64572060
  -exchange      EXHF   =         0.00000000
  -V(xc)+E(xc)   XCENC  =       721.38006117
  PAW double counting   =     22781.19404326   -22817.52333362
  entropy T*S    EENTRO =        -0.00011414
  eigenvalues    EBANDS =     -2492.45123199
  atomic energy  EATOM  =      7788.62438962
  Solvation  Ediel_sol  =         0.00000000
  ---------------------------------------------------
  free energy    TOTEN  =      -454.34047694 eV

  energy without entropy =     -454.34036281  energy(sigma->0) =     -454.34041987


--------------------------------------------------------------------------------------------------------




--------------------------------------- Iteration      1(  22)  ---------------------------------------


    POTLOK:  cpu time    0.0945: real time    0.0947
    SETDIJ:  cpu time    0.0864: real time    0.0864
    EDDIAG:  cpu time    0.4673: real time    0.4675
  RMM-DIIS:  cpu time    1.3921: real time    1.3935
    ORTHCH:  cpu time    0.0250: real time    0.0250
       DOS:  cpu time    0.0003: real time    0.0003
    CHARGE:  cpu time    0.2582: real time    0.2621
    MIXING:  cpu time    0.0070: real time    0.0070
    --------------------------------------------
      LOOP:  cpu time    2.3308: real time    2.3365

 eigenvalue-minimisations  :   400
 total energy-change (2. order) :-0.4659297E-04  (-0.1785640E-06)
 number of electron     206.0000000 magnetization 
 augmentation part        5.5443396 magnetization 

 Broyden mixing:
  rms(total) = 0.13701E-03    rms(broyden)= 0.13687E-03
  rms(prec ) = 0.15660E-03
  weight for this iteration     100.00

 eigenvalues of (default mixing * dielectric matrix)
  average eigenvalue GAMMA=   2.3711
  8.4399  6.3762  4.6227  3.0932  2.5199  2.3784  1.9002  1.5923  1.5923  0.7255
  0.7255  1.1610  1.1610  1.1466  0.9328  0.9328  1.0092

 Free energy of the ion-electron system (eV)
  ---------------------------------------------------
  alpha Z        PSCENC =        82.54348252
  Ewald energy   TEWEN  =     34516.53794683
  -Hartree energ DENC   =    -41034.80218546
  -exchange      EXHF   =         0.00000000
  -V(xc)+E(xc)   XCENC  =       721.38047644
  PAW double counting   =     22780.70523566   -22817.03463732
  entropy T*S    EENTRO =        -0.00011430
  eigenvalues    EBANDS =     -2492.29511752
  atomic energy  EATOM  =      7788.62438962
  Solvation  Ediel_sol  =         0.00000000
  ---------------------------------------------------
  free energy    TOTEN  =      -454.34052354 eV

  energy without entropy =     -454.34040923  energy(sigma->0) =     -454.34046638


--------------------------------------------------------------------------------------------------------




--------------------------------------- Iteration      1(  23)  ---------------------------------------


    POTLOK:  cpu time    0.0952: real time    0.0954
    SETDIJ:  cpu time    0.0779: real time    0.0779
    EDDIAG:  cpu time    0.4671: real time    0.4678
  RMM-DIIS:  cpu time    1.3035: real time    1.3044
    ORTHCH:  cpu time    0.0251: real time    0.0251
       DOS:  cpu time    0.0003: real time    0.0003
    CHARGE:  cpu time    0.2636: real time    0.2637
    MIXING:  cpu time    0.0073: real time    0.0073
    --------------------------------------------
      LOOP:  cpu time    2.2402: real time    2.2420

 eigenvalue-minimisations  :   307
 total energy-change (2. order) :-0.2305176E-04  (-0.3433255E-07)
 number of electron     206.0000000 magnetization 
 augmentation part        5.5443248 magnetization 

 Broyden mixing:
  rms(total) = 0.59899E-04    rms(broyden)= 0.59423E-04
  rms(prec ) = 0.65817E-04
  weight for this iteration     100.00

 eigenvalues of (default mixing * dielectric matrix)
  average eigenvalue GAMMA=   2.3983
  8.3596  7.1765  4.8329  3.2094  2.5630  2.2116  2.2116  2.2043  1.4208  1.4208
  0.7255  0.7255  1.1416  1.1416  1.0170  0.9487  0.9487  0.9105

 Free energy of the ion-electron system (eV)
  ---------------------------------------------------
  alpha Z        PSCENC =        82.54348252
  Ewald energy   TEWEN  =     34516.53794683
  -Hartree energ DENC   =    -41034.83341304
  -exchange      EXHF   =         0.00000000
  -V(xc)+E(xc)   XCENC  =       721.37974311
  PAW double counting   =     22781.36265574   -22817.69160406
  entropy T*S    EENTRO =        -0.00011461
  eigenvalues    EBANDS =     -2492.26363268
  atomic energy  EATOM  =      7788.62438962
  Solvation  Ediel_sol  =         0.00000000
  ---------------------------------------------------
  free energy    TOTEN  =      -454.34054659 eV

  energy without entropy =     -454.34043197  energy(sigma->0) =     -454.34048928


--------------------------------------------------------------------------------------------------------




--------------------------------------- Iteration      1(  24)  ---------------------------------------


    POTLOK:  cpu time    0.0959: real time    0.0961
    SETDIJ:  cpu time    0.0779: real time    0.0779
    EDDIAG:  cpu time    0.4718: real time    0.4724
  RMM-DIIS:  cpu time    1.2499: real time    1.2508
    ORTHCH:  cpu time    0.0249: real time    0.0249
       DOS:  cpu time    0.0002: real time    0.0002
    --------------------------------------------
      LOOP:  cpu time    1.9207: real time    1.9224

 eigenvalue-minimisations  :   265
 total energy-change (2. order) :-0.7197375E-05  (-0.9962976E-08)
 number of electron     206.0000000 magnetization 
 augmentation part        5.5443248 magnetization 

 Free energy of the ion-electron system (eV)
  ---------------------------------------------------
  alpha Z        PSCENC =        82.54348252
  Ewald energy   TEWEN  =     34516.53794683
  -Hartree energ DENC   =    -41034.83780942
  -exchange      EXHF   =         0.00000000
  -V(xc)+E(xc)   XCENC  =       721.37977288
  PAW double counting   =     22781.42918785   -22817.75819929
  entropy T*S    EENTRO =        -0.00011451
  eigenvalues    EBANDS =     -2492.25921026
  atomic energy  EATOM  =      7788.62438962
  Solvation  Ediel_sol  =         0.00000000
  ---------------------------------------------------
  free energy    TOTEN  =      -454.34055379 eV

  energy without entropy =     -454.34043927  energy(sigma->0) =     -454.34049653


--------------------------------------------------------------------------------------------------------




 average (electrostatic) potential at core
  the test charge radii are     0.6991  0.7215
  (the norm of the test charge is              1.0000)
       1 -58.2605       2 -58.2605       3 -58.2039       4 -58.0587       5 -58.2039
       6 -58.2605       7 -58.2763       8 -58.1333       9 -58.1333      10 -58.2763
      11 -58.2039      12 -58.1333      13 -60.6868      14 -58.1333      15 -58.2039
      16 -58.0587      17 -58.1333      18 -58.1333      19 -58.0587      20 -58.0655
      21 -58.2039      22 -58.2763      23 -58.2039      24 -58.0655      25 -58.0655
      26 -58.3821      27 -58.2929      28 -58.2221      29 -58.2221      30 -58.2929
      31 -58.2929      32 -58.3149      33 -58.8119      34 -58.3149      35 -58.2929
      36 -58.2221      37 -58.8119      38 -58.8119      39 -58.2221      40 -58.2235
      41 -58.2221      42 -58.3149      43 -58.2221      44 -58.1643      45 -58.1643
      46 -58.2929      47 -58.2929      48 -58.2235      49 -58.1643      50 -58.2235
      51 -81.5749
 
 
 
 E-fermi :  -3.0173     XC(G=0):  -2.2074     alpha+bet : -1.9409


 k-point     1 :       0.0000    0.0000    0.0000
  band No.  band energies     occupation 
      1     -31.7404      2.00000
      2     -22.2712      2.00000
      3     -21.5032      2.00000
      4     -21.5032      2.00000
      5     -21.3946      2.00000
      6     -21.3946      2.00000
      7     -21.3940      2.00000
      8     -20.8744      2.00000
      9     -19.8767      2.00000
     10     -19.8767      2.00000
     11     -19.5493      2.00000
     12     -19.5493      2.00000
     13     -19.5391      2.00000
     14     -19.1914      2.00000
     15     -18.9011      2.00000
     16     -18.9011      2.00000
     17     -18.6438      2.00000
     18     -18.6432      2.00000
     19     -18.6432      2.00000
     20     -17.8844      2.00000
     21     -17.0216      2.00000
     22     -17.0216      2.00000
     23     -16.4780      2.00000
     24     -16.4583      2.00000
     25     -16.4583      2.00000
     26     -16.0497      2.00000
     27     -15.9968      2.00000
     28     -15.9968      2.00000
     29     -15.4976      2.00000
     30     -15.4976      2.00000
     31     -15.4931      2.00000
     32     -15.0898      2.00000
     33     -14.6295      2.00000
     34     -14.6295      2.00000
     35     -14.1499      2.00000
     36     -14.1499      2.00000
     37     -14.1433      2.00000
     38     -13.9648      2.00000
     39     -12.9913      2.00000
     40     -12.9913      2.00000
     41     -12.0314      2.00000
     42     -11.7651      2.00000
     43     -11.7651      2.00000
     44     -11.7619      2.00000
     45     -11.6905      2.00000
     46     -11.6905      2.00000
     47     -11.6518      2.00000
     48     -11.6499      2.00000
     49     -11.6499      2.00000
     50     -11.6489      2.00000
     51     -10.8022      2.00000
     52     -10.8022      2.00000
     53     -10.4288      2.00000
     54     -10.3344      2.00000
     55     -10.2890      2.00000
     56     -10.2890      2.00000
     57     -10.2707      2.00000
     58     -10.0781      2.00000
     59      -9.6856      2.00000
     60      -9.6856      2.00000
     61      -9.3255      2.00000
     62      -9.3255      2.00000
     63      -9.3003      2.00000
     64      -9.2796      2.00000
     65      -9.2796      2.00000
     66      -9.0462      2.00000
     67      -9.0049      2.00000
     68      -9.0049      2.00000
     69      -8.9488      2.00000
     70      -8.9407      2.00000
     71      -8.9407      2.00000
     72      -8.9404      2.00000
     73      -8.9192      2.00000
     74      -8.9192      2.00000
     75      -8.8934      2.00000
     76      -8.4366      2.00000
     77      -7.8018      2.00000
     78      -7.8018      2.00000
     79      -7.3245      2.00000
     80      -7.3245      2.00000
     81      -7.3102      2.00000
     82      -7.3003      2.00000
     83      -7.2999      2.00000
     84      -7.2999      2.00000
     85      -7.1609      2.00000
     86      -7.1609      2.00000
     87      -7.1550      2.00000
     88      -6.7515      2.00000
     89      -6.5076      2.00000
     90      -6.5076      2.00000
     91      -6.2670      2.00000
     92      -6.2465      2.00000
     93      -6.2465      2.00000
     94      -5.9228      2.00000
     95      -5.9227      2.00000
     96      -5.1958      2.00000
     97      -4.7638      2.00000
     98      -4.7638      2.00000
     99      -4.2706      2.00000
    100      -4.2664      2.00000
    101      -4.2664      2.00000
    102      -3.2147      2.00000
    103      -3.2147      2.00000
    104      -2.9163      0.00429
    105      -1.4614      0.00000
[...]
     64      -9.4077      2.00000
     65      -9.1986      2.00000
     66      -9.0465      2.00000
     67      -9.0337      2.00000
     68      -8.9019      2.00000
     69      -8.8850      2.00000
     70      -8.6879      2.00000
     71      -8.6374      2.00000
     72      -8.6355      2.00000
     73      -8.6242      2.00000
     74      -8.5830      2.00000
     75      -8.3746      2.00000
     76      -8.2523      2.00000
     77      -8.1650      2.00000
     78      -8.0354      2.00000
     79      -7.9840      2.00000
     80      -7.8797      2.00000
     81      -7.8581      2.00000
     82      -7.8549      2.00000
     83      -7.2248      2.00000
     84      -7.1849      2.00000
     85      -7.1276      2.00000
     86      -6.8857      2.00000
     87      -6.7219      2.00000
     88      -6.6130      2.00000
     89      -6.4603      2.00000
     90      -6.2677      2.00000
     91      -6.1025      2.00000
     92      -5.9167      2.00000
     93      -5.9112      2.00000
     94      -5.8978      2.00000
     95      -5.4523      2.00000
     96      -5.4255      2.00000
     97      -5.1221      2.00000
     98      -5.0142      2.00000
     99      -4.9804      2.00000
    100      -4.9578      2.00000
    101      -3.7327      2.00000
    102      -3.4585      2.00000
    103      -3.2801      2.00000
    104      -2.3873      0.00000
    105      -2.2242      0.00000
    106      -0.9286      0.00000
    107      -0.8821      0.00000
    108      -0.8678      0.00000
    109      -0.5385      0.00000
    110      -0.2640      0.00000
    111      -0.2112      0.00000
    112       0.2519      0.00000
    113       0.2582      0.00000
    114       0.2604      0.00000
    115       0.5988      0.00000
    116       0.7923      0.00000
    117       0.9497      0.00000
    118       0.9763      0.00000
    119       1.0642      0.00000
    120       1.7378      0.00000
    121       1.7505      0.00000
    122       1.7748      0.00000
    123       1.8315      0.00000
    124       2.1893      0.00000
    125       2.2432      0.00000
    126       2.2469      0.00000
    127       2.9788      0.00000
    128       3.0013      0.00000
    129       3.0301      0.00000
    130       3.1292      0.00000
    131       3.2037      0.00000
    132       3.9856      0.00000


--------------------------------------------------------------------------------------------------------


 soft charge-density along one line, spin component           1
         0         1         2         3         4         5         6         7         8         9
 total charge-density along one line
 
 pseudopotential strength for first ion, spin component:           1
 10.222  13.594   0.000  -0.000   0.000  -0.000   0.000  -0.000
 13.594  18.076   0.000  -0.000   0.000  -0.000   0.000  -0.000
  0.000   0.000  -4.352  -0.000  -0.000   8.513   0.000   0.000
 -0.000  -0.000  -0.000  -4.344  -0.000   0.000   8.502   0.000
  0.000   0.000  -0.000  -0.000  -4.352   0.000   0.000   8.513
 -0.000  -0.000   8.513   0.000   0.000 -18.787  -0.000  -0.000
  0.000   0.000   0.000   8.502   0.000  -0.000 -18.776  -0.000
 -0.000  -0.000   0.000   0.000   8.513  -0.000  -0.000 -18.787
 total augmentation occupancy for first ion, spin component:           1
  8.358  -3.741   0.001   0.000   0.003   0.000   0.000   0.001
 -3.741   1.730  -0.002  -0.000  -0.003  -0.000   0.000  -0.000
  0.001  -0.002   1.840  -0.000  -0.001   0.174   0.000   0.000
  0.000  -0.000  -0.000   1.223  -0.000   0.000   0.078   0.000
  0.003  -0.003  -0.001  -0.000   1.839   0.000   0.000   0.174
  0.000  -0.000   0.174   0.000   0.000   0.018   0.000   0.000
  0.000   0.000   0.000   0.078   0.000   0.000   0.005   0.000
  0.001  -0.000   0.000   0.000   0.174   0.000   0.000   0.018


------------------------ aborting loop because EDIFF is reached ----------------------------------------


    CHARGE:  cpu time    0.2641: real time    0.2642
    FORLOC:  cpu time    0.0282: real time    0.0282
    FORNL :  cpu time    1.3454: real time    1.3465
    STRESS:  cpu time    2.5610: real time    2.5626
    FORCOR:  cpu time    0.1200: real time    0.1200
    FORHAR:  cpu time    0.0495: real time    0.0496
    MIXING:  cpu time    0.0050: real time    0.0050
    OFIELD:  cpu time    0.0001: real time    0.0001

  FORCE on cell =-STRESS in cart. coord.  units (eV):
  Direction    XX          YY          ZZ          XY          YZ          ZX
  --------------------------------------------------------------------------------------
  Alpha Z    82.54348    82.54348    82.54348
  Ewald   41234.49653 41234.48905-47952.46830     0.00195    -0.00004    -0.00002
  Hartree 40516.75088 40516.75081-39998.65448     0.00002    -0.00000     0.00000
  E(xc)    -777.14800  -777.14800  -804.22597     0.00000     0.00000     0.00000
  Local  -83988.90121-83988.89812 85337.49252    -0.00050     0.00003     0.00001
  n-local  -203.75906  -204.12048  -194.69915    -0.31279    -0.19508     0.30905
  augment   -12.37995   -12.37937   -14.04636    -0.00049     0.00000    -0.00000
  Kinetic  3161.32640  3166.95732  3596.33864     4.87413     1.50167    -2.60091
  Fock        0.00000     0.00000     0.00000     0.00000     0.00000     0.00000
  -------------------------------------------------------------------------------------
  Total      15.56188    15.56188    52.28039     0.00000     0.00000     0.00000
  in kB       9.51485     9.51485    31.96528     0.00000     0.00000     0.00000
  external pressure =       17.00 kB  Pullay stress =        0.00 kB


 VOLUME and BASIS-vectors are now :
 -----------------------------------------------------------------------------
  energy-cutoff  :      400.00
  volume of cell :     2620.42
      direct lattice vectors                 reciprocal lattice vectors
    12.300000191  0.000000000  0.000000000     0.081300812 -0.046939053  0.000000000
     6.150000804 10.652112223  0.000000000     0.000000000  0.093878095  0.000000000
     0.000000000  0.000000000 20.000000000     0.000000000  0.000000000  0.050000000

  length of vectors
    12.300000191 12.300000191 20.000000000     0.093878095  0.093878095  0.050000000


 FORCES acting on ions
    electron-ion (+dipol)            ewald-force                    non-local-force                 convergence-correction
 -----------------------------------------------------------------------------------------------
   -.148E+01 -.855E+00 0.279E+01   0.135E+01 0.778E+00 -.278E+01   0.852E-01 0.492E-01 -.213E-03   0.102E-03 0.588E-04 -.352E-05
   0.148E+01 -.855E+00 0.279E+01   -.135E+01 0.778E+00 -.278E+01   -.852E-01 0.492E-01 -.213E-03   -.102E-03 0.588E-04 -.352E-05
   0.370E+01 0.642E+01 0.381E+01   -.374E+01 -.649E+01 -.377E+01   -.114E+00 0.773E-01 -.713E-01   -.512E-04 0.256E-04 -.115E-04
   -.377E-05 0.129E+02 0.480E+01   -.525E-04 -.131E+02 -.494E+01   0.905E-09 0.136E-01 0.112E+00   0.423E-08 0.241E-04 -.540E-05
   -.370E+01 0.642E+01 0.381E+01   0.374E+01 -.649E+01 -.377E+01   0.114E+00 0.773E-01 -.713E-01   0.512E-04 0.256E-04 -.115E-04
   -.564E-05 0.171E+01 0.279E+01   -.505E-04 -.156E+01 -.278E+01   -.655E-08 -.984E-01 -.213E-03   -.824E-09 -.118E-03 -.352E-05
   0.117E+02 0.673E+01 0.489E+01   -.113E+02 -.655E+01 -.494E+01   0.108E+00 0.623E-01 0.525E-01   -.581E-04 -.335E-04 -.710E-05
   0.209E+02 0.362E+02 0.186E+02   -.214E+02 -.371E+02 -.190E+02   0.638E+00 0.654E+00 0.545E+00   -.765E-04 0.351E-04 0.368E-04
   -.209E+02 0.362E+02 0.186E+02   0.214E+02 -.371E+02 -.190E+02   -.638E+00 0.654E+00 0.545E+00   0.765E-04 0.350E-04 0.368E-04
   -.117E+02 0.673E+01 0.489E+01   0.113E+02 -.655E+01 -.494E+01   -.108E+00 0.623E-01 0.525E-01   0.581E-04 -.335E-04 -.710E-05
   0.741E+01 -.765E-02 0.381E+01   -.749E+01 -.113E-03 -.377E+01   0.997E-02 -.137E+00 -.713E-01   -.343E-05 -.572E-04 -.115E-04
   0.418E+02 -.410E-01 0.186E+02   -.428E+02 -.113E-03 -.190E+02   0.885E+00 0.226E+00 0.545E+00   -.787E-05 -.838E-04 0.368E-04
   -.530E-05 -.111E-05 0.291E+03   -.512E-04 -.113E-03 -.346E+03   0.243E-16 0.000E+00 0.713E+01   0.146E-07 0.848E-08 0.167E-03
   -.418E+02 -.410E-01 0.186E+02   0.428E+02 -.113E-03 -.190E+02   -.885E+00 0.226E+00 0.545E+00   0.788E-05 -.838E-04 0.368E-04
   -.741E+01 -.765E-02 0.381E+01   0.749E+01 -.113E-03 -.377E+01   -.997E-02 -.137E+00 -.713E-01   0.344E-05 -.572E-04 -.115E-04
   0.111E+02 -.644E+01 0.480E+01   -.113E+02 0.655E+01 -.494E+01   0.118E-01 -.679E-02 0.112E+00   0.209E-04 -.121E-04 -.540E-05
   0.210E+02 -.362E+02 0.186E+02   -.214E+02 0.371E+02 -.190E+02   0.247E+00 -.880E+00 0.545E+00   0.686E-04 0.487E-04 0.368E-04
   -.210E+02 -.362E+02 0.186E+02   0.214E+02 0.371E+02 -.190E+02   -.247E+00 -.880E+00 0.545E+00   -.686E-04 0.487E-04 0.368E-04
   -.111E+02 -.644E+01 0.480E+01   0.113E+02 0.655E+01 -.494E+01   -.118E-01 -.679E-02 0.112E+00   -.209E-04 -.121E-04 -.540E-05
   -.427E-05 -.148E+01 0.282E+01   -.519E-04 0.156E+01 -.278E+01   -.575E-08 -.864E-01 -.149E-01   0.194E-08 -.480E-04 -.406E-05
   0.371E+01 -.642E+01 0.381E+01   -.374E+01 0.649E+01 -.377E+01   0.124E+00 0.600E-01 -.713E-01   0.478E-04 0.316E-04 -.115E-04
   -.616E-05 -.135E+02 0.489E+01   -.500E-04 0.131E+02 -.494E+01   -.830E-08 -.125E+00 0.525E-01   -.463E-08 0.671E-04 -.710E-05
   -.371E+01 -.642E+01 0.381E+01   0.374E+01 0.649E+01 -.377E+01   -.124E+00 0.600E-01 -.713E-01   -.478E-04 0.316E-04 -.115E-04
   -.128E+01 0.741E+00 0.282E+01   0.135E+01 -.778E+00 -.278E+01   -.748E-01 0.432E-01 -.149E-01   -.415E-04 0.240E-04 -.406E-05
   0.128E+01 0.741E+00 0.282E+01   -.135E+01 -.778E+00 -.278E+01   0.748E-01 0.432E-01 -.149E-01   0.415E-04 0.240E-04 -.406E-05
   0.728E-04 0.127E-03 0.250E+01   0.528E-04 0.115E-03 -.250E+01   0.108E-18 0.000E+00 -.102E-01   0.462E-08 0.262E-08 -.113E-05
   0.531E+01 0.407E+01 0.341E+01   -.514E+01 -.429E+01 -.338E+01   -.713E-01 0.370E-02 -.239E-01   -.603E-04 0.451E-04 -.845E-05
   0.607E+01 0.171E+02 0.688E+01   -.581E+01 -.171E+02 -.650E+01   -.661E-01 0.161E+00 -.121E+00   -.250E-04 -.114E-04 -.519E-05
   -.607E+01 0.171E+02 0.688E+01   0.581E+01 -.171E+02 -.650E+01   0.661E-01 0.161E+00 -.121E+00   0.249E-04 -.114E-04 -.519E-05
   -.531E+01 0.407E+01 0.341E+01   0.514E+01 -.429E+01 -.338E+01   0.713E-01 0.370E-02 -.239E-01   0.603E-04 0.451E-04 -.845E-05
   0.618E+01 0.256E+01 0.341E+01   -.629E+01 -.230E+01 -.338E+01   -.324E-01 -.636E-01 -.239E-01   0.892E-05 -.747E-04 -.845E-05
   0.283E+02 0.163E+02 0.126E+02   -.286E+02 -.165E+02 -.131E+02   -.158E+00 -.915E-01 0.145E+00   -.248E-04 -.143E-04 0.153E-04
   0.103E-03 0.878E+02 0.586E+02   0.211E-04 -.922E+02 -.663E+02   -.426E-07 -.640E+00 0.330E+01   -.233E-08 0.125E-03 0.116E-03
   -.283E+02 0.163E+02 0.126E+02   0.286E+02 -.165E+02 -.131E+02   0.158E+00 -.915E-01 0.145E+00   0.249E-04 -.144E-04 0.153E-04
   -.618E+01 0.256E+01 0.341E+01   0.629E+01 -.230E+01 -.338E+01   0.324E-01 -.636E-01 -.239E-01   -.891E-05 -.747E-04 -.845E-05
   0.179E+02 -.331E+01 0.688E+01   -.177E+02 0.349E+01 -.650E+01   0.106E+00 -.138E+00 -.121E+00   -.223E-04 -.159E-04 -.519E-05
   0.760E+02 -.439E+02 0.586E+02   -.799E+02 0.461E+02 -.663E+02   -.554E+00 0.320E+00 0.330E+01   0.108E-03 -.625E-04 0.116E-03
   -.760E+02 -.439E+02 0.586E+02   0.799E+02 0.461E+02 -.663E+02   0.554E+00 0.320E+00 0.330E+01   -.108E-03 -.625E-04 0.116E-03
   -.179E+02 -.331E+01 0.688E+01   0.177E+02 0.349E+01 -.650E+01   -.106E+00 -.138E+00 -.121E+00   0.223E-04 -.159E-04 -.519E-05
   0.729E-04 -.608E+00 0.293E+01   0.529E-04 0.845E+00 -.290E+01   -.103E-07 -.155E+00 -.522E-01   0.206E-08 -.478E-04 -.830E-05
   0.118E+02 -.138E+02 0.688E+01   -.119E+02 0.136E+02 -.650E+01   0.172E+00 -.232E-01 -.121E+00   0.263E-05 0.273E-04 -.519E-05
   0.763E-04 -.327E+02 0.126E+02   0.493E-04 0.330E+02 -.131E+02   0.122E-07 0.183E+00 0.145E+00   -.204E-08 0.287E-04 0.153E-04
   -.118E+02 -.138E+02 0.688E+01   0.119E+02 0.136E+02 -.650E+01   -.172E+00 -.232E-01 -.121E+00   -.262E-05 0.273E-04 -.519E-05
   -.385E+01 -.222E+01 0.282E+01   0.378E+01 0.218E+01 -.286E+01   -.199E-01 -.115E-01 0.130E-01   -.354E-04 -.204E-04 -.374E-05
   0.385E+01 -.222E+01 0.282E+01   -.378E+01 0.218E+01 -.286E+01   0.199E-01 -.115E-01 0.130E-01   0.354E-04 -.204E-04 -.374E-05
   0.873E+00 -.664E+01 0.341E+01   -.115E+01 0.660E+01 -.338E+01   0.388E-01 0.599E-01 -.239E-01   0.692E-04 0.296E-04 -.845E-05
   -.873E+00 -.664E+01 0.341E+01   0.115E+01 0.660E+01 -.338E+01   -.388E-01 0.599E-01 -.239E-01   -.692E-04 0.297E-04 -.845E-05
   -.527E+00 0.304E+00 0.293E+01   0.732E+00 -.422E+00 -.290E+01   -.134E+00 0.773E-01 -.522E-01   -.414E-04 0.239E-04 -.830E-05
   0.753E-04 0.444E+01 0.282E+01   0.503E-04 -.437E+01 -.286E+01   0.153E-08 0.229E-01 0.130E-01   -.216E-08 0.409E-04 -.374E-05
   0.527E+00 0.304E+00 0.293E+01   -.732E+00 -.422E+00 -.290E+01   0.134E+00 0.773E-01 -.522E-01   0.414E-04 0.239E-04 -.831E-05
   -.281E-05 -.859E-06 -.722E+03   -.189E-04 -.435E-04 0.846E+03   0.139E-15 0.000E+00 -.638E+02   0.851E-09 0.608E-09 0.120E-03
 -----------------------------------------------------------------------------------------------
   0.172E-02 0.317E-02 0.440E+02   0.640E-13 -.221E-13 -.682E-12   -.194E-15 -.971E-16 -.440E+02   0.230E-07 0.109E-07 0.655E-03
 
 
 POSITION                                       TOTAL-FORCE (eV/Angst)
 -----------------------------------------------------------------------------------
      0.00000      0.00000      8.35995        -0.047535     -0.027444      0.009398
      2.46000      0.00000      8.35995         0.047535     -0.027444      0.009398
      4.92000      0.00000      8.35995        -0.159038      0.014554     -0.026040
      7.38000      0.00000      8.35995        -0.000000     -0.207475     -0.027051
      9.84000      0.00000      8.35995         0.159038      0.014554     -0.026040
      1.23000      2.13042      8.35995         0.000000      0.054889      0.009398
      3.69000      2.13042      8.35995         0.428973      0.247668      0.000007
      6.15000      2.13042      8.35995         0.094699     -0.204958      0.164910
      8.61000      2.13042      8.35995        -0.094699     -0.204958      0.164910
     11.07000      2.13042      8.35995        -0.428973      0.247668      0.000007
      2.46000      4.26084      8.35995        -0.066915     -0.145008     -0.026040
      4.92000      4.26084      8.35995        -0.130149      0.184490      0.164910
      7.38000      4.26084      8.35995         0.000000      0.000000    -48.156967
      9.84000      4.26084      8.35995         0.130149      0.184490      0.164910
     12.30000      4.26084      8.35995         0.066915     -0.145008     -0.026040
      3.69000      6.39127      8.35995        -0.179678      0.103737     -0.027051
      6.15000      6.39127      8.35995        -0.224848      0.020467      0.164910
      8.61000      6.39127      8.35995         0.224848      0.020467      0.164910
     11.07000      6.39127      8.35995         0.179678      0.103737     -0.027051
     13.53000      6.39127      8.35995        -0.000000     -0.013201      0.017885
      4.92000      8.52169      8.35995         0.092123      0.130454     -0.026040
      7.38000      8.52169      8.35995        -0.000000     -0.495336      0.000007
      9.84000      8.52169      8.35995        -0.092123      0.130454     -0.026040
     12.30000      8.52169      8.35995        -0.011432      0.006600      0.017885
     14.76000      8.52169      8.35995         0.011432      0.006600      0.017885
      1.23000      0.71014      8.36012         0.000000      0.000000     -0.006045
      3.69000      0.71014      8.36012         0.097320     -0.217076      0.010113
      6.15000      0.71014      8.36012         0.194143      0.250415      0.257023
      8.61000      0.71014      8.36012        -0.194143      0.250415      0.257023
     11.07000      0.71014      8.36012        -0.097320     -0.217076      0.010113
      2.46000      2.84056      8.36012        -0.139333      0.192820      0.010113
      4.92000      2.84056      8.36012        -0.441748     -0.255043     -0.355436
      7.38000      2.84056      8.36012        -0.000000     -5.075983     -4.348823
      9.84000      2.84056      8.36012         0.441748     -0.255043     -0.355436
     12.30000      2.84056      8.36012         0.139333      0.192820      0.010113
      3.69000      4.97099      8.36012         0.313937      0.042925      0.257023
      6.15000      4.97099      8.36012        -4.395930      2.537991     -4.348823
      8.61000      4.97099      8.36012         4.395930      2.537991     -4.348823
     11.07000      4.97099      8.36012        -0.313937      0.042925      0.257023
     13.53000      4.97099      8.36012         0.000000      0.082049     -0.022060
      4.92000      7.10141      8.36012         0.119794     -0.293340      0.257023
      7.38000      7.10141      8.36012         0.000000      0.510086     -0.355436
      9.84000      7.10141      8.36012        -0.119794     -0.293340      0.257023
     12.30000      7.10141      8.36012        -0.082371     -0.047557     -0.026425
     14.76000      7.10141      8.36012         0.082371     -0.047557     -0.026425
      6.15000      9.23183      8.36012        -0.236653      0.024256      0.010113
      8.61000      9.23183      8.36012         0.236653      0.024256      0.010113
     11.07000      9.23183      8.36012         0.071056     -0.041024     -0.022060
     13.53000      9.23183      8.36012         0.000000      0.095114     -0.026425
     15.99000      9.23183      8.36012        -0.071056     -0.041024     -0.022060
      7.38000      4.26084      9.36012         0.000000      0.000000     59.984499
 -----------------------------------------------------------------------------------
    total drift:                                0.001717      0.003166     -0.000151


--------------------------------------------------------------------------------------------------------



  FREE ENERGIE OF THE ION-ELECTRON SYSTEM (eV)
  ---------------------------------------------------
  free  energy   TOTEN  =      -454.34055379 eV

  energy  without entropy=     -454.34043927  energy(sigma->0) =     -454.34049653
 


--------------------------------------------------------------------------------------------------------


    POTLOK:  cpu time    0.1767: real time    0.1770


--------------------------------------------------------------------------------------------------------


 stress matrix after NEB project (eV)
     15.56188      0.00000      0.00000
      0.00000     15.56188      0.00000
      0.00000      0.00000     52.28039
  FORCES: max atom, RMS    59.984499   10.896411
  FORCE total and by dimension   77.815943   59.984499
  Stress total and by dimension   56.723744   52.280386
 writing wavefunctions
     LOOP+:  cpu time   81.7491: real time   82.4132
    4ORBIT:  cpu time    0.0000: real time    0.0000

 total amount of memory used by VASP MPI-rank0    84338. kBytes
=======================================================================

   base      :      30000. kBytes
   nonl-proj :       7142. kBytes
   fftplans  :      26248. kBytes
   grid      :      14579. kBytes
   one-center:         21. kBytes
   wavefun   :       6348. kBytes
 
  
  
 General timing and accounting informations for this job:
 ========================================================
  
                  Total CPU time used (sec):       92.565
                            User time (sec):       86.562
                          System time (sec):        6.003
                         Elapsed time (sec):       94.117
  
                   Maximum memory used (kb):      386220.
                   Average memory used (kb):           0.
  
                          Minor page faults:       113651
                          Major page faults:           12
                 Voluntary context switches:         1241
