<?xml version="1.0" encoding="ISO-8859-1"?>
<modeling>
 <generator>
  <i name="program" type="string">vasp </i>
  <i name="version" type="string">5.4.4.18Apr17-6-g9f103f2a35  </i>
  <i name="subversion" type="string">(build Aug 13 2022 23:40:43) complex            parallel </i>
  <i name="platform" type="string">LinuxIFC </i>
  <i name="date" type="string">2024 11 10 </i>
  <i name="time" type="string">03:36:13 </i>
 </generator>
 <incar>
  <i type="int" name="ISTART">     0</i>
  <i type="string" name="PREC">accurate</i>
  <i type="string" name="ALGO"> F          N:DAV,fine,slow</i>
  <i type="logical" name="ADDGRID"> T  </i>
  <i type="int" name="ISPIN">     1</i>
  <i type="int" name="ICHARG">     2</i>
  <i type="int" name="NELM">   300</i>
  <i type="int" name="IBRION">    -1</i>
  <i name="EDIFF">      0.00001000</i>
  <i name="EDIFFG">     -0.00100000</i>
  <i type="int" name="NSW">     1</i>
  <i type="int" name="ISIF">     2</i>
  <i name="ENCUT">    400.00000000</i>
  <i type="logical" name="LREAL"> F  </i>
  <i type="int" name="ISMEAR">     0</i>
  <i name="SIGMA">      0.05000000</i>
  <i type="logical" name="LWAVE"> T  </i>
  <i type="logical" name="LCHARG"> T  </i>
  <v type="int" name="KPOINT_BSE">    -1     0     0     0</v>
  <i type="int" name="NELM">   300</i>
 </incar>
 <structure name="primitive_cell" >
  <crystal>
   <varray name="basis" >
    <v>      12.30000019       0.00000000       0.00000000 </v>
    <v>       6.15000080      10.65211222       0.00000000 </v>
    <v>       0.00000000       0.00000000      20.00000000 </v>
   </varray>
   <i name="volume">   2620.41964732 </i>
   <varray name="rec_basis" >
    <v>       0.08130081      -0.04693905       0.00000000 </v>
    <v>       0.00000000       0.09387809       0.00000000 </v>
    <v>       0.00000000       0.00000000       0.05000000 </v>
   </varray>
  </crystal>
  <varray name="positions" >
   <v>       0.00000000       0.00000000       0.41799748 </v>
   <v>       0.06666667       0.06666660       0.41800609 </v>
   <v>      -0.13333333       0.06666660       0.41800609 </v>
   <v>       0.06666667      -0.13333340       0.41800609 </v>
   <v>      -0.20000000       0.20000000       0.41799748 </v>
   <v>       0.20000000      -0.20000000       0.41799748 </v>
   <v>       0.20000000       0.00000000       0.41799748 </v>
   <v>      -0.20000000       0.00000000       0.41799748 </v>
   <v>       0.00000000       0.20000000       0.41799748 </v>
   <v>       0.00000000      -0.20000000       0.41799748 </v>
   <v>      -0.13333333       0.26666660       0.41800609 </v>
   <v>       0.26666667      -0.13333340       0.41800609 </v>
   <v>      -0.13333333      -0.13333340       0.41800609 </v>
   <v>       0.06666667       0.26666660       0.41800609 </v>
   <v>      -0.33333333       0.26666660       0.41800609 </v>
   <v>       0.26666667       0.06666660       0.41800609 </v>
   <v>      -0.33333333       0.06666660       0.41800609 </v>
   <v>       0.26666667      -0.33333340       0.41800609 </v>
   <v>       0.06666667      -0.33333340       0.41800609 </v>
   <v>      -0.40000000       0.20000000       0.41799748 </v>
   <v>       0.40000000      -0.20000000       0.41799748 </v>
   <v>      -0.20000000       0.40000000       0.41799748 </v>
   <v>       0.20000000      -0.40000000       0.41799748 </v>
   <v>       0.20000000       0.20000000       0.41799748 </v>
   <v>      -0.20000000      -0.20000000       0.41799748 </v>
   <v>      -0.40000000       0.40000000       0.41799748 </v>
   <v>       0.40000000      -0.40000000       0.41799748 </v>
   <v>       0.40000000       0.00000000       0.41799748 </v>
   <v>      -0.40000000       0.00000000       0.41799748 </v>
   <v>       0.00000000       0.40000000       0.41799748 </v>
   <v>       0.00000000      -0.40000000       0.41799748 </v>
   <v>      -0.13333333       0.46666660       0.41800609 </v>
   <v>      -0.33333333       0.46666660       0.41800609 </v>
   <v>       0.46666667      -0.13333340       0.41800609 </v>
   <v>       0.46666667      -0.33333340       0.41800609 </v>
   <v>      -0.33333333      -0.13333340       0.41800609 </v>
   <v>      -0.13333333      -0.33333340       0.41800609 </v>
   <v>       0.26666667       0.26666660       0.41800609 </v>
   <v>       0.46666667       0.26666660       0.41800609 </v>
   <v>       0.26666667       0.46666660       0.41800609 </v>
   <v>       0.06666667       0.46666660       0.41800609 </v>
   <v>       0.46666667       0.46666660       0.41800609 </v>
   <v>       0.46666667       0.06666660       0.41800609 </v>
   <v>       0.40000000       0.40000000       0.41799748 </v>
   <v>      -0.40000000      -0.40000000       0.41799748 </v>
   <v>       0.40000000       0.20000000       0.41799748 </v>
   <v>      -0.40000000      -0.20000000       0.41799748 </v>
   <v>       0.20000000       0.40000000       0.41799748 </v>
   <v>      -0.20000000      -0.40000000       0.41799748 </v>
   <v>       0.40000000       0.40000000       0.46800609 </v>
   <v>      -0.33333333      -0.33333340       0.41800609 </v>
  </varray>
 </structure>
 <varray name="primitive_index" >
  <v type="int" >        1 </v>
  <v type="int" >       26 </v>
  <v type="int" >       30 </v>
  <v type="int" >       46 </v>
  <v type="int" >       10 </v>
  <v type="int" >       22 </v>
  <v type="int" >        2 </v>
  <v type="int" >        5 </v>
  <v type="int" >        6 </v>
  <v type="int" >       21 </v>
  <v type="int" >       35 </v>
  <v type="int" >       47 </v>
  <v type="int" >       50 </v>
  <v type="int" >       31 </v>
  <v type="int" >       34 </v>
  <v type="int" >       27 </v>
  <v type="int" >       29 </v>
  <v type="int" >       42 </v>
  <v type="int" >       41 </v>
  <v type="int" >        9 </v>
  <v type="int" >       23 </v>
  <v type="int" >       15 </v>
  <v type="int" >       17 </v>
  <v type="int" >        7 </v>
  <v type="int" >       25 </v>
  <v type="int" >       14 </v>
  <v type="int" >       18 </v>
  <v type="int" >        3 </v>
  <v type="int" >        4 </v>
  <v type="int" >       11 </v>
  <v type="int" >       16 </v>
  <v type="int" >       40 </v>
  <v type="int" >       39 </v>
  <v type="int" >       48 </v>
  <v type="int" >       43 </v>
  <v type="int" >       49 </v>
  <v type="int" >       45 </v>
  <v type="int" >       32 </v>
  <v type="int" >       33 </v>
  <v type="int" >       37 </v>
  <v type="int" >       36 </v>
  <v type="int" >       38 </v>
  <v type="int" >       28 </v>
  <v type="int" >       13 </v>
  <v type="int" >       19 </v>
  <v type="int" >        8 </v>
  <v type="int" >       24 </v>
  <v type="int" >       12 </v>
  <v type="int" >       20 </v>
  <v type="int" >       51 </v>
  <v type="int" >       44 </v>
 </varray>
 <kpoints>
  <generation param="Gamma">
   <v type="int" name="divisions">       3        3        1 </v>
   <v name="usershift">      0.00000000       0.00000000       0.00000000 </v>
   <v name="genvec1">      0.33333333      -0.00000000       0.00000000 </v>
   <v name="genvec2">      0.00000000       0.33333333       0.00000000 </v>
   <v name="genvec3">      0.00000000       0.00000000       1.00000000 </v>
   <v name="shift">      0.00000000       0.00000000       0.00000000 </v>
  </generation>
  <varray name="kpointlist" >
   <v>       0.00000000       0.00000000       0.00000000 </v>
   <v>       0.33333333       0.00000000       0.00000000 </v>
   <v>      -0.33333333       0.33333333       0.00000000 </v>
  </varray>
  <varray name="weights" >
   <v>       0.11111111 </v>
   <v>       0.66666667 </v>
   <v>       0.22222222 </v>
  </varray>
 </kpoints>
 <parameters>
  <separator name="general" >
   <i type="string" name="SYSTEM"></i>
   <i type="logical" name="LCOMPAT"> F  </i>
  </separator>
  <separator name="electronic" >
   <i type="string" name="PREC">accura</i>
   <i name="ENMAX">    400.00000000</i>
   <i name="ENAUG">    644.87300000</i>
   <i name="EDIFF">      0.00001000</i>
   <i type="int" name="IALGO">    68</i>
   <i type="int" name="IWAVPR">    10</i>
   <i type="int" name="NBANDS">   132</i>
   <i name="NELECT">    206.00000000</i>
   <i type="int" name="TURBO">     0</i>
   <i type="int" name="IRESTART">     0</i>
   <i type="int" name="NREBOOT">     0</i>
   <i type="int" name="NMIN">     0</i>
   <i name="EREF">      0.00000000</i>
   <separator name="electronic smearing" >
    <i type="int" name="ISMEAR">     0</i>
    <i name="SIGMA">      0.05000000</i>
    <i name="KSPACING">      0.50000000</i>
    <i type="logical" name="KGAMMA"> T  </i>
   </separator>
   <separator name="electronic projectors" >
    <i type="logical" name="LREAL"> F  </i>
    <v name="ROPT">      0.00000000      0.00000000</v>
    <i type="int" name="LMAXPAW">  -100</i>
    <i type="int" name="LMAXMIX">     2</i>
    <i type="logical" name="NLSPLINE"> F  </i>
   </separator>
   <separator name="electronic startup" >
    <i type="int" name="ISTART">     0</i>
    <i type="int" name="ICHARG">     2</i>
    <i type="int" name="INIWAV">     1</i>
   </separator>
   <separator name="electronic spin" >
    <i type="int" name="ISPIN">     1</i>
    <i type="logical" name="LNONCOLLINEAR"> F  </i>
    <v name="MAGMOM">      1.00000000      1.00000000      1.00000000      1.00000000      1.00000000      1.00000000      1.00000000      1.00000000      1.00000000      1.00000000      1.00000000      1.00000000      1.00000000      1.00000000      1.00000000      1.00000000      1.00000000      1.00000000      1.00000000      1.00000000
      1.00000000      1.00000000      1.00000000      1.00000000      1.00000000      1.00000000      1.00000000      1.00000000      1.00000000      1.00000000      1.00000000      1.00000000      1.00000000      1.00000000      1.00000000      1.00000000      1.00000000      1.00000000      1.00000000      1.00000000
      1.00000000      1.00000000      1.00000000      1.00000000      1.00000000      1.00000000      1.00000000      1.00000000      1.00000000      1.00000000      1.00000000</v>
    <i name="NUPDOWN">     -1.00000000</i>
    <i type="logical" name="LSORBIT"> F  </i>
    <v name="SAXIS">      0.00000000      0.00000000      1.00000000</v>
    <i type="logical" name="LSPIRAL"> F  </i>
    <v name="QSPIRAL">      0.00000000      0.00000000      0.00000000</v>
    <i type="logical" name="LZEROZ"> F  </i>
   </separator>
   <separator name="electronic exchange-correlation" >
    <i type="logical" name="LASPH"> F  </i>
    <i type="logical" name="LMETAGGA"> F  </i>
   </separator>
   <separator name="electronic convergence" >
    <i type="int" name="NELM">   300</i>
    <i type="int" name="NELMDL">    -5</i>
    <i type="int" name="NELMIN">     2</i>
    <i name="ENINI">    400.00000000</i>
    <separator name="electronic convergence detail" >
     <i type="logical" name="LDIAG"> T  </i>
     <i type="logical" name="LSUBROT"> F  </i>
     <i name="WEIMIN">      0.00000000</i>
     <i name="EBREAK">      0.00000002</i>
     <i name="DEPER">      0.30000000</i>
     <i type="int" name="NRMM">     4</i>
     <i name="TIME">      0.40000000</i>
    </separator>
   </separator>
   <separator name="electronic mixer" >
    <i name="AMIX">      0.40000000</i>
    <i name="BMIX">      1.00000000</i>
    <i name="AMIN">      0.10000000</i>
    <i name="AMIX_MAG">      1.60000000</i>
    <i name="BMIX_MAG">      1.00000000</i>
    <separator name="electronic mixer details" >
     <i type="int" name="IMIX">     4</i>
     <i type="logical" name="MIXFIRST"> F  </i>
     <i type="int" name="MAXMIX">   -45</i>
     <i name="WC">    100.00000000</i>
     <i type="int" name="INIMIX">     1</i>
     <i type="int" name="MIXPRE">     1</i>
     <i type="int" name="MREMOVE">     5</i>
    </separator>
   </separator>
   <separator name="electronic dipolcorrection" >
    <i type="logical" name="LDIPOL"> F  </i>
    <i type="logical" name="LMONO"> F  </i>
    <i type="int" name="IDIPOL">     0</i>
    <i name="EPSILON">      1.00000000</i>
    <v name="DIPOL">   -100.00000000   -100.00000000   -100.00000000</v>
    <i name="EFIELD">      0.00000000</i>
   </separator>
  </separator>
  <separator name="grids" >
   <i type="int" name="NGX">    80</i>
   <i type="int" name="NGY">    80</i>
   <i type="int" name="NGZ">   140</i>
   <i type="int" name="NGXF">   160</i>
   <i type="int" name="NGYF">   160</i>
   <i type="int" name="NGZF">   280</i>
   <i type="logical" name="ADDGRID"> T  </i>
  </separator>
  <separator name="ionic" >
   <i type="int" name="NSW">     1</i>
   <i type="int" name="IBRION">    -1</i>
   <i type="int" name="MDALGO">     0</i>
   <i type="int" name="ISIF">     2</i>
   <i name="PSTRESS">      0.00000000</i>
   <i name="EDIFFG">     -0.00100000</i>
   <i type="int" name="NFREE">     0</i>
   <i name="POTIM">      0.50000000</i>
   <i name="SMASS">     -3.00000000</i>
   <i name="SCALEE">      1.00000000</i>
  </separator>
  <separator name="ionic md" >
   <i name="TEBEG">      0.00010000</i>
   <i name="TEEND">      0.00010000</i>
   <i type="int" name="NBLOCK">     1</i>
   <i type="int" name="KBLOCK">     1</i>
   <i type="int" name="NPACO">   256</i>
   <i name="APACO">     16.00000000</i>
  </separator>
  <separator name="symmetry" >
   <i type="int" name="ISYM">     2</i>
   <i name="SYMPREC">      0.00001000</i>
  </separator>
  <separator name="dos" >
   <i type="int" name="LORBIT">     0</i>
   <v name="RWIGS">     -1.00000000     -1.00000000</v>
   <i type="int" name="NEDOS">   301</i>
   <i name="EMIN">     10.00000000</i>
   <i name="EMAX">    -10.00000000</i>
   <i name="EFERMI">      0.00000000</i>
  </separator>
  <separator name="writing" >
   <i type="int" name="NWRITE">     2</i>
   <i type="logical" name="LWAVE"> T  </i>
   <i type="logical" name="LDOWNSAMPLE"> F  </i>
   <i type="logical" name="LCHARG"> T  </i>
   <i type="logical" name="LPARD"> F  </i>
   <i type="logical" name="LVTOT"> F  </i>
   <i type="logical" name="LVHAR"> F  </i>
   <i type="logical" name="LELF"> F  </i>
   <i type="logical" name="LOPTICS"> F  </i>
   <v name="STM">      0.00000000      0.00000000      0.00000000      0.00000000      0.00000000      0.00000000      0.00000000</v>
  </separator>
  <separator name="performance" >
   <i type="int" name="NPAR">     6</i>
   <i type="int" name="NSIM">     4</i>
   <i type="int" name="NBLK">    -1</i>
   <i type="logical" name="LPLANE"> T  </i>
   <i type="logical" name="LSCALAPACK"> T  </i>
   <i type="logical" name="LSCAAWARE"> F  </i>
   <i type="logical" name="LSCALU"> F  </i>
   <i type="logical" name="LASYNC"> F  </i>
   <i type="logical" name="LORBITALREAL"> F  </i>
  </separator>
  <separator name="miscellaneous" >
   <i type="int" name="IDIOT">     3</i>
   <i type="int" name="ISPECIAL">     0</i>
   <i type="logical" name="LMUSIC"> F  </i>
   <v name="POMASS">     12.01100000     16.00000000</v>
   <v name="DARWINR">      0.00000000      0.00000000</v>
   <v name="DARWINV">      1.00000000      1.00000000</v>
   <i type="logical" name="LCORR"> T  </i>
  </separator>
  <i type="logical" name="GGA_COMPAT"> T  </i>
  <i type="logical" name="LBERRY"> F  </i>
  <i type="int" name="ICORELEVEL">     0</i>
  <i type="logical" name="LDAU"> F  </i>
  <i type="int" name="I_CONSTRAINED_M">     0</i>
  <separator name="electronic exchange-correlation" >
   <i type="string" name="GGA">--</i>
   <i type="int" name="VOSKOWN">     0</i>
   <i type="logical" name="LHFCALC"> F  </i>
   <i type="string" name="PRECFOCK"></i>
   <i type="logical" name="LSYMGRAD"> F  </i>
   <i type="logical" name="LHFONE"> F  </i>
   <i type="logical" name="LRHFCALC"> F  </i>
   <i type="logical" name="LTHOMAS"> F  </i>
   <i type="logical" name="LMODELHF"> F  </i>
   <i name="ENCUT4O">     -1.00000000</i>
   <i type="int" name="EXXOEP">     0</i>
   <i type="int" name="FOURORBIT">     0</i>
   <i name="AEXX">      0.00000000</i>
   <i name="HFALPHA">      0.00000000</i>
   <i name="MCALPHA">      0.00000000</i>
   <i name="ALDAX">      1.00000000</i>
   <i name="AGGAX">      1.00000000</i>
   <i name="ALDAC">      1.00000000</i>
   <i name="AGGAC">      1.00000000</i>
   <i type="int" name="NKREDX">     1</i>
   <i type="int" name="NKREDY">     1</i>
   <i type="int" name="NKREDZ">     1</i>
   <i type="logical" name="SHIFTRED"> F  </i>
   <i type="logical" name="ODDONLY"> F  </i>
   <i type="logical" name="EVENONLY"> F  </i>
   <i type="int" name="LMAXFOCK">     0</i>
   <i type="int" name="NMAXFOCKAE">     0</i>
   <i type="logical" name="LFOCKAEDFT"> F  </i>
   <i name="HFSCREEN">      0.00000000</i>
   <i name="HFSCREENC">      0.00000000</i>
   <i type="int" name="NBANDSGWLOW">     0</i>
  </separator>
  <separator name="vdW DFT" >
   <i type="logical" name="LUSE_VDW"> F  </i>
   <i name="Zab_VDW">     -0.84910000</i>
   <i name="PARAM1">      0.12340000</i>
   <i name="PARAM2">      1.00000000</i>
   <i name="PARAM3">      0.00000000</i>
  </separator>
  <separator name="model GW" >
   <i type="int" name="MODEL_GW">     0</i>
   <i name="MODEL_EPS0">     30.82846644</i>
   <i name="MODEL_ALPHA">      1.00000000</i>
  </separator>
  <separator name="linear response parameters" >
   <i type="logical" name="LEPSILON"> F  </i>
   <i type="logical" name="LRPA"> F  </i>
   <i type="logical" name="LNABLA"> F  </i>
   <i type="logical" name="LVEL"> F  </i>
   <i type="int" name="KINTER">     0</i>
   <i name="CSHIFT">      0.10000000</i>
   <i name="OMEGAMAX">     -1.00000000</i>
   <i name="DEG_THRESHOLD">      0.00200000</i>
   <i name="RTIME">     -0.10000000</i>
   <i name="WPLASMAI">      0.00000000</i>
   <v name="DFIELD">      0.00000000      0.00000000      0.00000000</v>
   <v name="WPLASMA">      0.00000000      0.00000000      0.00000000      0.00000000      0.00000000      0.00000000      0.00000000      0.00000000      0.00000000</v>
  </separator>
  <separator name="orbital magnetization" >
   <i type="logical" name="NUCIND"> F  </i>
   <v name="MAGPOS">      0.00000000      0.00000000      0.00000000</v>
   <i type="logical" name="LNICSALL"> T  </i>
   <i type="logical" name="ORBITALMAG"> F  </i>
   <i type="logical" name="LMAGBLOCH"> F  </i>
   <i type="logical" name="LCHIMAG"> F  </i>
   <i type="logical" name="LGAUGE"> T  </i>
   <i type="int" name="MAGATOM">     0</i>
   <v name="MAGDIPOL">      0.00000000      0.00000000      0.00000000</v>
   <v name="AVECCONST">      0.00000000      0.00000000      0.00000000</v>
  </separator>
  <separator name="response functions" >
   <i type="logical" name="LADDER"> F  </i>
   <i type="logical" name="LRPAFORCE"> F  </i>
   <i type="logical" name="LFXC"> F  </i>
   <i type="logical" name="LHARTREE"> T  </i>
   <i type="int" name="IBSE">     0</i>
   <v type="int" name="KPOINT">    -1     0     0     0</v>
   <i type="logical" name="LTCTE"> F  </i>
   <i type="logical" name="LTETE"> F  </i>
   <i type="logical" name="LTRIPLET"> F  </i>
   <i type="logical" name="LFXCEPS"> F  </i>
   <i type="logical" name="LFXHEG"> F  </i>
   <i type="int" name="NATURALO">     2</i>
   <i type="logical" name="L2ORDER"> F  </i>
   <i type="logical" name="LMP2LT"> F  </i>
   <i type="logical" name="LUSEW"> F  </i>
   <i name="ENCUTGW">     -2.00000000</i>
   <i name="ENCUTGWSOFT">     -2.00000000</i>
   <i name="ENCUTLF">     -1.00000000</i>
   <i type="int" name="LMAXMP2">    -1</i>
   <i name="SCISSOR">      0.00000000</i>
   <i type="int" name="NOMEGA">     0</i>
   <i type="int" name="NOMEGAR">     0</i>
   <i type="int" name="NBANDSGW">    -1</i>
   <i type="int" name="NBANDSO">    -1</i>
   <i type="int" name="NBANDSV">    -1</i>
   <i type="int" name="NELM">   300</i>
   <i type="int" name="NELMHF">     1</i>
   <i type="int" name="DIM">     3</i>
   <i type="int" name="ANTIRES">     0</i>
   <i name="OMEGAMAX">    -30.00000000</i>
   <i name="OMEGAMIN">    -30.00000000</i>
   <i name="OMEGATL">   -200.00000000</i>
   <i type="int" name="OMEGAGRID">   140</i>
   <i name="CSHIFT">     -0.10000000</i>
   <i type="logical" name="SELFENERGY"> F  </i>
   <i type="logical" name="LSPECTRAL"> F  </i>
   <i type="logical" name="LSPECTRALGW"> F  </i>
   <i type="logical" name="LSINGLES"> F  </i>
   <i type="logical" name="LFERMIGW"> F  </i>
   <i type="logical" name="ODDONLYGW"> F  </i>
   <i type="logical" name="EVENONLYGW"> F  </i>
   <i type="int" name="NKREDLFX">     1</i>
   <i type="int" name="NKREDLFY">     1</i>
   <i type="int" name="NKREDLFZ">     1</i>
   <i type="int" name="MAXMEM">  2800</i>
   <i type="int" name="TELESCOPE">     0</i>
   <i type="int" name="TAUPAR">     1</i>
   <i type="int" name="OMEGAPAR">    -1</i>
   <i name="LAMBDA">      1.00000000</i>
  </separator>
  <separator name="External order field" >
   <i name="OFIELD_KAPPA">      0.00000000</i>
   <v name="OFIELD_K">      0.00000000      0.00000000      0.00000000</v>
   <i name="OFIELD_Q6_NEAR">      0.00000000</i>
   <i name="OFIELD_Q6_FAR">      0.00000000</i>
   <i name="OFIELD_A">      0.00000000</i>
  </separator>
 </parameters>
 <atominfo>
  <atoms>      51 </atoms>
  <types>       2 </types>
  <array name="atoms" >
   <dimension dim="1">ion</dimension>
   <field type="string">element</field>
   <field type="int">atomtype</field>
   <set>
    <rc><c>C </c><c>   1</c></rc>
    <rc><c>C </c><c>   1</c></rc>
    <rc><c>C </c><c>   1</c></rc>
    <rc><c>C </c><c>   1</c></rc>
    <rc><c>C </c><c>   1</c></rc>
    <rc><c>C </c><c>   1</c></rc>
    <rc><c>C </c><c>   1</c></rc>
    <rc><c>C </c><c>   1</c></rc>
    <rc><c>C </c><c>   1</c></rc>
    <rc><c>C </c><c>   1</c></rc>
    <rc><c>C </c><c>   1</c></rc>
    <rc><c>C </c><c>   1</c></rc>
    <rc><c>C </c><c>   1</c></rc>
    <rc><c>C </c><c>   1</c></rc>
    <rc><c>C </c><c>   1</c></rc>
    <rc><c>C </c><c>   1</c></rc>
    <rc><c>C </c><c>   1</c></rc>
    <rc><c>C </c><c>   1</c></rc>
    <rc><c>C </c><c>   1</c></rc>
    <rc><c>C </c><c>   1</c></rc>
    <rc><c>C </c><c>   1</c></rc>
    <rc><c>C </c><c>   1</c></rc>
    <rc><c>C </c><c>   1</c></rc>
    <rc><c>C </c><c>   1</c></rc>
    <rc><c>C </c><c>   1</c></rc>
    <rc><c>C </c><c>   1</c></rc>
    <rc><c>C </c><c>   1</c></rc>
    <rc><c>C </c><c>   1</c></rc>
    <rc><c>C </c><c>   1</c></rc>
    <rc><c>C </c><c>   1</c></rc>
    <rc><c>C </c><c>   1</c></rc>
    <rc><c>C </c><c>   1</c></rc>
    <rc><c>C </c><c>   1</c></rc>
    <rc><c>C </c><c>   1</c></rc>
    <rc><c>C </c><c>   1</c></rc>
    <rc><c>C </c><c>   1</c></rc>
    <rc><c>C </c><c>   1</c></rc>
    <rc><c>C </c><c>   1</c></rc>
    <rc><c>C </c><c>   1</c></rc>
    <rc><c>C </c><c>   1</c></rc>
    <rc><c>C </c><c>   1</c></rc>
    <rc><c>C </c><c>   1</c></rc>
    <rc><c>C </c><c>   1</c></rc>
    <rc><c>C </c><c>   1</c></rc>
    <rc><c>C </c><c>   1</c></rc>
    <rc><c>C </c><c>   1</c></rc>
    <rc><c>C </c><c>   1</c></rc>
    <rc><c>C </c><c>   1</c></rc>
    <rc><c>C </c><c>   1</c></rc>
    <rc><c>C </c><c>   1</c></rc>
    <rc><c>O </c><c>   2</c></rc>
   </set>
  </array>
  <array name="atomtypes" >
   <dimension dim="1">type</dimension>
   <field type="int">atomspertype</field>
   <field type="string">element</field>
   <field>mass</field>
   <field>valence</field>
   <field type="string">pseudopotential</field>
   <set>
    <rc><c>  50</c><c>C </c><c>     12.01100000</c><c>      4.00000000</c><c>  PAW_PBE C 08Apr2002                   </c></rc>
    <rc><c>   1</c><c>O </c><c>     16.00000000</c><c>      6.00000000</c><c>  PAW_PBE O 08Apr2002                   </c></rc>
   </set>
  </array>
 </atominfo>
 <structure name="initialpos" >
  <crystal>
   <varray name="basis" >
    <v>      12.30000019       0.00000000       0.00000000 </v>
    <v>       6.15000080      10.65211222       0.00000000 </v>
    <v>       0.00000000       0.00000000      20.00000000 </v>
   </varray>
   <i name="volume">   2620.41964732 </i>
   <varray name="rec_basis" >
    <v>       0.08130081      -0.04693905       0.00000000 </v>
    <v>       0.00000000       0.09387809       0.00000000 </v>
    <v>       0.00000000       0.00000000       0.05000000 </v>
   </varray>
  </crystal>
  <varray name="positions" >
   <v>       0.00000000       0.00000000       0.41799748 </v>
   <v>       0.20000000       0.00000000       0.41799748 </v>
   <v>       0.40000000       0.00000000       0.41799748 </v>
   <v>       0.60000000       0.00000000       0.41799748 </v>
   <v>       0.80000000       0.00000000       0.41799748 </v>
   <v>       0.00000000       0.20000000       0.41799748 </v>
   <v>       0.20000000       0.20000000       0.41799748 </v>
   <v>       0.40000000       0.20000000       0.41799748 </v>
   <v>       0.60000000       0.20000000       0.41799748 </v>
   <v>       0.80000000       0.20000000       0.41799748 </v>
   <v>       0.00000000       0.40000000       0.41799748 </v>
   <v>       0.20000000       0.40000000       0.41799748 </v>
   <v>       0.40000000       0.40000000       0.41799748 </v>
   <v>       0.60000000       0.40000000       0.41799748 </v>
   <v>       0.80000000       0.40000000       0.41799748 </v>
   <v>       0.00000000       0.60000000       0.41799748 </v>
   <v>       0.20000000       0.60000000       0.41799748 </v>
   <v>       0.40000000       0.60000000       0.41799748 </v>
   <v>       0.60000000       0.60000000       0.41799748 </v>
   <v>       0.80000000       0.60000000       0.41799748 </v>
   <v>       0.00000000       0.80000000       0.41799748 </v>
   <v>       0.20000000       0.80000000       0.41799748 </v>
   <v>       0.40000000       0.80000000       0.41799748 </v>
   <v>       0.60000000       0.80000000       0.41799748 </v>
   <v>       0.80000000       0.80000000       0.41799748 </v>
   <v>       0.06666667       0.06666660       0.41800609 </v>
   <v>       0.26666667       0.06666660       0.41800609 </v>
   <v>       0.46666667       0.06666660       0.41800609 </v>
   <v>       0.66666667       0.06666660       0.41800609 </v>
   <v>       0.86666667       0.06666660       0.41800609 </v>
   <v>       0.06666667       0.26666660       0.41800609 </v>
   <v>       0.26666667       0.26666660       0.41800609 </v>
   <v>       0.46666667       0.26666660       0.41800609 </v>
   <v>       0.66666667       0.26666660       0.41800609 </v>
   <v>       0.86666667       0.26666660       0.41800609 </v>
   <v>       0.06666667       0.46666660       0.41800609 </v>
   <v>       0.26666667       0.46666660       0.41800609 </v>
   <v>       0.46666667       0.46666660       0.41800609 </v>
   <v>       0.66666667       0.46666660       0.41800609 </v>
   <v>       0.86666667       0.46666660       0.41800609 </v>
   <v>       0.06666667       0.66666660       0.41800609 </v>
   <v>       0.26666667       0.66666660       0.41800609 </v>
   <v>       0.46666667       0.66666660       0.41800609 </v>
   <v>       0.66666667       0.66666660       0.41800609 </v>
   <v>       0.86666667       0.66666660       0.41800609 </v>
   <v>       0.06666667       0.86666660       0.41800609 </v>
   <v>       0.26666667       0.86666660       0.41800609 </v>
   <v>       0.46666667       0.86666660       0.41800609 </v>
   <v>       0.66666667       0.86666660       0.41800609 </v>
   <v>       0.86666667       0.86666660       0.41800609 </v>
   <v>       0.40000000       0.40000000       0.46800609 </v>
  </varray>
  <varray name="velocities" >
   <v>       0.00000000       0.00000000       0.00000000 </v>
   <v>       0.00000000       0.00000000       0.00000000 </v>
   <v>       0.00000000       0.00000000       0.00000000 </v>
   <v>       0.00000000       0.00000000       0.00000000 </v>
   <v>       0.00000000       0.00000000       0.00000000 </v>
   <v>       0.00000000       0.00000000       0.00000000 </v>
   <v>       0.00000000       0.00000000       0.00000000 </v>
   <v>       0.00000000       0.00000000       0.00000000 </v>
   <v>       0.00000000       0.00000000       0.00000000 </v>
   <v>       0.00000000       0.00000000       0.00000000 </v>
   <v>       0.00000000       0.00000000       0.00000000 </v>
   <v>       0.00000000       0.00000000       0.00000000 </v>
   <v>       0.00000000       0.00000000       0.00000000 </v>
   <v>       0.00000000       0.00000000       0.00000000 </v>
   <v>       0.00000000       0.00000000       0.00000000 </v>
   <v>       0.00000000       0.00000000       0.00000000 </v>
   <v>       0.00000000       0.00000000       0.00000000 </v>
   <v>       0.00000000       0.00000000       0.00000000 </v>
   <v>       0.00000000       0.00000000       0.00000000 </v>
   <v>       0.00000000       0.00000000       0.00000000 </v>
   <v>       0.00000000       0.00000000       0.00000000 </v>
   <v>       0.00000000       0.00000000       0.00000000 </v>
   <v>       0.00000000       0.00000000       0.00000000 </v>
   <v>       0.00000000       0.00000000       0.00000000 </v>
   <v>       0.00000000       0.00000000       0.00000000 </v>
   <v>       0.00000000       0.00000000       0.00000000 </v>
   <v>       0.00000000       0.00000000       0.00000000 </v>
   <v>       0.00000000       0.00000000       0.00000000 </v>
   <v>       0.00000000       0.00000000       0.00000000 </v>
   <v>       0.00000000       0.00000000       0.00000000 </v>
   <v>       0.00000000       0.00000000       0.00000000 </v>
   <v>       0.00000000       0.00000000       0.00000000 </v>
   <v>       0.00000000       0.00000000       0.00000000 </v>
   <v>       0.00000000       0.00000000       0.00000000 </v>
   <v>       0.00000000       0.00000000       0.00000000 </v>
   <v>       0.00000000       0.00000000       0.00000000 </v>
   <v>       0.00000000       0.00000000       0.00000000 </v>
   <v>       0.00000000       0.00000000       0.00000000 </v>
   <v>       0.00000000       0.00000000       0.00000000 </v>
   <v>       0.00000000       0.00000000       0.00000000 </v>
   <v>       0.00000000       0.00000000       0.00000000 </v>
   <v>       0.00000000       0.00000000       0.00000000 </v>
   <v>       0.00000000       0.00000000       0.00000000 </v>
   <v>       0.00000000       0.00000000       0.00000000 </v>
   <v>       0.00000000       0.00000000       0.00000000 </v>
   <v>       0.00000000       0.00000000       0.00000000 </v>
   <v>       0.00000000       0.00000000       0.00000000 </v>
   <v>       0.00000000       0.00000000       0.00000000 </v>
   <v>       0.00000000       0.00000000       0.00000000 </v>
   <v>       0.00000000       0.00000000       0.00000000 </v>
   <v>       0.00000000       0.00000000       0.00000000 </v>
  </varray>
 </structure>
 <calculation>
  <scstep>
   <time name="dav">    2.81    2.89</time>
   <time name="total">    3.01    3.09</time>
   <energy>
    <i name="alphaZ">     82.54348252 </i>
    <i name="ewald">  34516.53794683 </i>
    <i name="hartreedc"> -40148.34394632 </i>
    <i name="XCdc">    690.61220077 </i>
    <i name="pawpsdc">   5772.65179589 </i>
    <i name="pawaedc">  -5802.92075699 </i>
    <i name="eentropy">     -0.00893520 </i>
    <i name="bandstr">  -1225.71702850 </i>
    <i name="atom">   7788.62438962 </i>
    <i name="e_fr_energy">   1673.97914861 </i>
    <i name="e_wo_entrp">   1673.98808381 </i>
    <i name="e_0_energy">   1673.98361621 </i>
   </energy>
  </scstep>
  <scstep>
   <time name="dav">    3.12    3.16</time>
   <time name="total">    3.12    3.16</time>
   <energy>
    <i name="e_fr_energy">   -134.55074775 </i>
    <i name="e_wo_entrp">   -134.54326099 </i>
    <i name="e_0_energy">   -134.54700437 </i>
   </energy>
  </scstep>
  <scstep>
   <time name="dav">    2.69    2.72</time>
   <time name="total">    2.69    2.72</time>
   <energy>
    <i name="e_fr_energy">   -475.94857675 </i>
    <i name="e_wo_entrp">   -475.94857675 </i>
    <i name="e_0_energy">   -475.94857675 </i>
   </energy>
  </scstep>
  <scstep>
   <time name="dav">    2.65    2.67</time>
   <time name="total">    2.65    2.67</time>
   <energy>
    <i name="e_fr_energy">   -487.85007904 </i>
    <i name="e_wo_entrp">   -487.85007904 </i>
    <i name="e_0_energy">   -487.85007904 </i>
   </energy>
  </scstep>
  <scstep>
   <time name="dav">    2.82    2.85</time>
   <time name="total">    3.09    3.12</time>
   <energy>
    <i name="e_fr_energy">   -488.21683956 </i>
    <i name="e_wo_entrp">   -488.21683956 </i>
    <i name="e_0_energy">   -488.21683956 </i>
   </energy>
  </scstep>
  <scstep>
   <time name="diag">    0.47    0.47</time>
   <time name="diis">    2.30    2.33</time>
   <time name="orth">    0.02    0.02</time>
   <time name="total">    3.24    3.28</time>
   <energy>
    <i name="e_fr_energy">   -463.87119750 </i>
    <i name="e_wo_entrp">   -463.85855207 </i>
    <i name="e_0_energy">   -463.86487478 </i>
   </energy>
  </scstep>
  <scstep>
   <time name="diag">    0.47    0.48</time>
   <time name="diis">    2.33    2.35</time>
   <time name="orth">    0.02    0.03</time>
   <time name="total">    3.26    3.29</time>
   <energy>
    <i name="e_fr_energy">   -457.05519424 </i>
    <i name="e_wo_entrp">   -457.05519424 </i>
    <i name="e_0_energy">   -457.05519424 </i>
   </energy>
  </scstep>
  <scstep>
   <time name="diag">    0.47    0.47</time>
   <time name="diis">    2.37    2.40</time>
   <time name="orth">    0.03    0.03</time>
   <time name="total">    3.31    3.35</time>
   <energy>
    <i name="e_fr_energy">   -454.58838141 </i>
    <i name="e_wo_entrp">   -454.58838141 </i>
    <i name="e_0_energy">   -454.58838141 </i>
   </energy>
  </scstep>
  <scstep>
   <time name="diag">    0.47    0.47</time>
   <time name="diis">    2.49    2.52</time>
   <time name="orth">    0.03    0.03</time>
   <time name="total">    3.42    3.46</time>
   <energy>
    <i name="e_fr_energy">   -454.46215777 </i>
    <i name="e_wo_entrp">   -454.45382881 </i>
    <i name="e_0_energy">   -454.45799329 </i>
   </energy>
  </scstep>
  <scstep>
   <time name="diag">    0.47    0.47</time>
   <time name="diis">    2.45    2.47</time>
   <time name="orth">    0.02    0.02</time>
   <time name="total">    3.38    3.42</time>
   <energy>
    <i name="e_fr_energy">   -454.32319386 </i>
    <i name="e_wo_entrp">   -454.32310067 </i>
    <i name="e_0_energy">   -454.32314727 </i>
   </energy>
  </scstep>
  <scstep>
   <time name="diag">    0.46    0.47</time>
   <time name="diis">    2.51    2.54</time>
   <time name="orth">    0.02    0.02</time>
   <time name="total">    3.44    3.47</time>
   <energy>
    <i name="e_fr_energy">   -454.31425967 </i>
    <i name="e_wo_entrp">   -454.31417505 </i>
    <i name="e_0_energy">   -454.31421736 </i>
   </energy>
  </scstep>
  <scstep>
   <time name="diag">    0.47    0.47</time>
   <time name="diis">    2.35    2.38</time>
   <time name="orth">    0.02    0.03</time>
   <time name="total">    3.28    3.32</time>
   <energy>
    <i name="e_fr_energy">   -454.30584599 </i>
    <i name="e_wo_entrp">   -454.30577106 </i>
    <i name="e_0_energy">   -454.30580853 </i>
   </energy>
  </scstep>
  <scstep>
   <time name="diag">    0.47    0.47</time>
   <time name="diis">    2.36    2.38</time>
   <time name="orth">    0.03    0.03</time>
   <time name="total">    3.30    3.33</time>
   <energy>
    <i name="e_fr_energy">   -454.31079750 </i>
    <i name="e_wo_entrp">   -454.31059667 </i>
    <i name="e_0_energy">   -454.31069709 </i>
   </energy>
  </scstep>
  <scstep>
   <time name="diag">    0.46    0.47</time>
   <time name="diis">    2.36    2.38</time>
   <time name="orth">    0.02    0.02</time>
   <time name="total">    3.29    3.32</time>
   <energy>
    <i name="e_fr_energy">   -454.31937578 </i>
    <i name="e_wo_entrp">   -454.31924169 </i>
    <i name="e_0_energy">   -454.31930873 </i>
   </energy>
  </scstep>
  <scstep>
   <time name="diag">    0.47    0.48</time>
   <time name="diis">    2.45    2.48</time>
   <time name="orth">    0.03    0.03</time>
   <time name="total">    3.39    3.43</time>
   <energy>
    <i name="e_fr_energy">   -454.32632891 </i>
    <i name="e_wo_entrp">   -454.32622649 </i>
    <i name="e_0_energy">   -454.32627770 </i>
   </energy>
  </scstep>
  <scstep>
   <time name="diag">    0.47    0.47</time>
   <time name="diis">    2.36    2.36</time>
   <time name="orth">    0.02    0.03</time>
   <time name="total">    3.31    3.32</time>
   <energy>
    <i name="e_fr_energy">   -454.33551827 </i>
    <i name="e_wo_entrp">   -454.33540899 </i>
    <i name="e_0_energy">   -454.33546363 </i>
   </energy>
  </scstep>
  <scstep>
   <time name="diag">    0.47    0.47</time>
   <time name="diis">    2.02    2.02</time>
   <time name="orth">    0.02    0.03</time>
   <time name="total">    2.96    2.96</time>
   <energy>
    <i name="e_fr_energy">   -454.33936361 </i>
    <i name="e_wo_entrp">   -454.33924769 </i>
    <i name="e_0_energy">   -454.33930565 </i>
   </energy>
  </scstep>
  <scstep>
   <time name="diag">    0.47    0.47</time>
   <time name="diis">    2.07    2.07</time>
   <time name="orth">    0.02    0.03</time>
   <time name="total">    3.01    3.01</time>
   <energy>
    <i name="e_fr_energy">   -454.34001527 </i>
    <i name="e_wo_entrp">   -454.33990096 </i>
    <i name="e_0_energy">   -454.33995812 </i>
   </energy>
  </scstep>
  <scstep>
   <time name="diag">    0.47    0.47</time>
   <time name="diis">    1.91    1.91</time>
   <time name="orth">    0.03    0.03</time>
   <time name="total">    2.84    2.85</time>
   <energy>
    <i name="e_fr_energy">   -454.34029847 </i>
    <i name="e_wo_entrp">   -454.34018290 </i>
    <i name="e_0_energy">   -454.34024069 </i>
   </energy>
  </scstep>
  <scstep>
   <time name="diag">    0.47    0.47</time>
   <time name="diis">    1.65    1.65</time>
   <time name="orth">    0.02    0.02</time>
   <time name="total">    2.59    2.59</time>
   <energy>
    <i name="e_fr_energy">   -454.34041463 </i>
    <i name="e_wo_entrp">   -454.34029998 </i>
    <i name="e_0_energy">   -454.34035730 </i>
   </energy>
  </scstep>
  <scstep>
   <time name="diag">    0.47    0.47</time>
   <time name="diis">    1.46    1.46</time>
   <time name="orth">    0.02    0.02</time>
   <time name="total">    2.40    2.41</time>
   <energy>
    <i name="e_fr_energy">   -454.34047694 </i>
    <i name="e_wo_entrp">   -454.34036281 </i>
    <i name="e_0_energy">   -454.34041987 </i>
   </energy>
  </scstep>
  <scstep>
   <time name="diag">    0.47    0.47</time>
   <time name="diis">    1.39    1.39</time>
   <time name="orth">    0.03    0.03</time>
   <time name="total">    2.33    2.34</time>
   <energy>
    <i name="e_fr_energy">   -454.34052354 </i>
    <i name="e_wo_entrp">   -454.34040923 </i>
    <i name="e_0_energy">   -454.34046638 </i>
   </energy>
  </scstep>
  <scstep>
   <time name="diag">    0.47    0.47</time>
   <time name="diis">    1.30    1.30</time>
   <time name="orth">    0.03    0.03</time>
   <time name="total">    2.24    2.24</time>
   <energy>
    <i name="e_fr_energy">   -454.34054659 </i>
    <i name="e_wo_entrp">   -454.34043197 </i>
    <i name="e_0_energy">   -454.34048928 </i>
   </energy>
  </scstep>
  <scstep>
   <time name="diag">    0.47    0.47</time>
   <time name="diis">    1.25    1.25</time>
   <time name="orth">    0.02    0.02</time>
   <time name="total">    1.92    1.92</time>
   <energy>
    <i name="alphaZ">     82.54348252 </i>
    <i name="ewald">  34516.53794683 </i>
    <i name="hartreedc"> -41034.83780942 </i>
    <i name="XCdc">    721.37977288 </i>
    <i name="pawpsdc">  22781.42918785 </i>
    <i name="pawaedc"> -22817.75819929 </i>
    <i name="eentropy">     -0.00011451 </i>
    <i name="bandstr">  -2492.25921026 </i>
    <i name="atom">   7788.62438962 </i>
    <i name="e_fr_energy">   -454.34055379 </i>
    <i name="e_wo_entrp">   -454.34043927 </i>
    <i name="e_0_energy">   -454.34049653 </i>
   </energy>
  </scstep>
  <structure>
   <crystal>
    <varray name="basis" >
     <v>      12.30000019       0.00000000       0.00000000 </v>
     <v>       6.15000080      10.65211222       0.00000000 </v>
     <v>       0.00000000       0.00000000      20.00000000 </v>
    </varray>
    <i name="volume">   2620.41964732 </i>
    <varray name="rec_basis" >
     <v>       0.08130081      -0.04693905       0.00000000 </v>
     <v>       0.00000000       0.09387809       0.00000000 </v>
     <v>       0.00000000       0.00000000       0.05000000 </v>
    </varray>
   </crystal>
   <varray name="positions" >
    <v>       0.00000000       0.00000000       0.41799748 </v>
    <v>       0.20000000       0.00000000       0.41799748 </v>
    <v>       0.40000000       0.00000000       0.41799748 </v>
    <v>       0.60000000       0.00000000       0.41799748 </v>
    <v>       0.80000000       0.00000000       0.41799748 </v>
    <v>       0.00000000       0.20000000       0.41799748 </v>
    <v>       0.20000000       0.20000000       0.41799748 </v>
    <v>       0.40000000       0.20000000       0.41799748 </v>
    <v>       0.60000000       0.20000000       0.41799748 </v>
    <v>       0.80000000       0.20000000       0.41799748 </v>
    <v>       0.00000000       0.40000000       0.41799748 </v>
    <v>       0.20000000       0.40000000       0.41799748 </v>
    <v>       0.40000000       0.40000000       0.41799748 </v>
    <v>       0.60000000       0.40000000       0.41799748 </v>
    <v>       0.80000000       0.40000000       0.41799748 </v>
    <v>       0.00000000       0.60000000       0.41799748 </v>
    <v>       0.20000000       0.60000000       0.41799748 </v>
    <v>       0.40000000       0.60000000       0.41799748 </v>
    <v>       0.60000000       0.60000000       0.41799748 </v>
    <v>       0.80000000       0.60000000       0.41799748 </v>
    <v>       0.00000000       0.80000000       0.41799748 </v>
    <v>       0.20000000       0.80000000       0.41799748 </v>
    <v>       0.40000000       0.80000000       0.41799748 </v>
    <v>       0.60000000       0.80000000       0.41799748 </v>
    <v>       0.80000000       0.80000000       0.41799748 </v>
    <v>       0.06666667       0.06666660       0.41800609 </v>
    <v>       0.26666667       0.06666660       0.41800609 </v>
    <v>       0.46666667       0.06666660       0.41800609 </v>
    <v>       0.66666667       0.06666660       0.41800609 </v>
    <v>       0.86666667       0.06666660       0.41800609 </v>
    <v>       0.06666667       0.26666660       0.41800609 </v>
    <v>       0.26666667       0.26666660       0.41800609 </v>
    <v>       0.46666667       0.26666660       0.41800609 </v>
    <v>       0.66666667       0.26666660       0.41800609 </v>
    <v>       0.86666667       0.26666660       0.41800609 </v>
    <v>       0.06666667       0.46666660       0.41800609 </v>
    <v>       0.26666667       0.46666660       0.41800609 </v>
    <v>       0.46666667       0.46666660       0.41800609 </v>
    <v>       0.66666667       0.46666660       0.41800609 </v>
    <v>       0.86666667       0.46666660       0.41800609 </v>
    <v>       0.06666667       0.66666660       0.41800609 </v>
    <v>       0.26666667       0.66666660       0.41800609 </v>
    <v>       0.46666667       0.66666660       0.41800609 </v>
    <v>       0.66666667       0.66666660       0.41800609 </v>
    <v>       0.86666667       0.66666660       0.41800609 </v>
    <v>       0.06666667       0.86666660       0.41800609 </v>
    <v>       0.26666667       0.86666660       0.41800609 </v>
    <v>       0.46666667       0.86666660       0.41800609 </v>
    <v>       0.66666667       0.86666660       0.41800609 </v>
    <v>       0.86666667       0.86666660       0.41800609 </v>
    <v>       0.40000000       0.40000000       0.46800609 </v>
   </varray>
  </structure>
  <varray name="forces" >
   <v>      -0.04753487      -0.02744427       0.00939780 </v>
   <v>       0.04753486      -0.02744427       0.00939780 </v>
   <v>      -0.15903832       0.01455370      -0.02604008 </v>
   <v>      -0.00000001      -0.20747467      -0.02705107 </v>
   <v>       0.15903832       0.01455370      -0.02604008 </v>
   <v>       0.00000000       0.05488853       0.00939780 </v>
   <v>       0.42897341       0.24766789       0.00000740 </v>
   <v>       0.09469859      -0.20495768       0.16490964 </v>
   <v>      -0.09469862      -0.20495768       0.16490964 </v>
   <v>      -0.42897337       0.24766789       0.00000740 </v>
   <v>      -0.06691530      -0.14500807      -0.02604008 </v>
   <v>      -0.13014925       0.18449023       0.16490964 </v>
   <v>       0.00000000       0.00000000     -48.15696727 </v>
   <v>       0.13014927       0.18449023       0.16490964 </v>
   <v>       0.06691528      -0.14500807      -0.02604008 </v>
   <v>      -0.17967834       0.10373734      -0.02705107 </v>
   <v>      -0.22484786       0.02046744       0.16490964 </v>
   <v>       0.22484787       0.02046744       0.16490964 </v>
   <v>       0.17967835       0.10373734      -0.02705107 </v>
   <v>      -0.00000000      -0.01320099       0.01788489 </v>
   <v>       0.09212304       0.13045437      -0.02604008 </v>
   <v>      -0.00000003      -0.49533579       0.00000740 </v>
   <v>      -0.09212302       0.13045437      -0.02604008 </v>
   <v>      -0.01143239       0.00660050       0.01788489 </v>
   <v>       0.01143240       0.00660050       0.01788489 </v>
   <v>       0.00000000       0.00000000      -0.00604526 </v>
   <v>       0.09732028      -0.21707601       0.01011257 </v>
   <v>       0.19414269       0.25041476       0.25702269 </v>
   <v>      -0.19414265       0.25041476       0.25702269 </v>
   <v>      -0.09732031      -0.21707601       0.01011257 </v>
   <v>      -0.13933318       0.19281985       0.01011257 </v>
   <v>      -0.44174759      -0.25504307      -0.35543601 </v>
   <v>      -0.00000034      -5.07598271      -4.34882329 </v>
   <v>       0.44174756      -0.25504307      -0.35543601 </v>
   <v>       0.13933321       0.19281985       0.01011257 </v>
   <v>       0.31393689       0.04292510       0.25702269 </v>
   <v>      -4.39592997       2.53799135      -4.34882329 </v>
   <v>       4.39593031       2.53799135      -4.34882329 </v>
   <v>      -0.31393688       0.04292510       0.25702269 </v>
   <v>       0.00000001       0.08204868      -0.02205967 </v>
   <v>       0.11979420      -0.29333986       0.25702269 </v>
   <v>       0.00000003       0.51008614      -0.35543601 </v>
   <v>      -0.11979424      -0.29333986       0.25702269 </v>
   <v>      -0.08237108      -0.04755696      -0.02642507 </v>
   <v>       0.08237107      -0.04755696      -0.02642507 </v>
   <v>      -0.23665349       0.02425616       0.01011257 </v>
   <v>       0.23665350       0.02425616       0.01011257 </v>
   <v>       0.07105624      -0.04102434      -0.02205967 </v>
   <v>       0.00000001       0.09511392      -0.02642507 </v>
   <v>      -0.07105624      -0.04102434      -0.02205967 </v>
   <v>       0.00000000       0.00000000      59.98449875 </v>
  </varray>
  <varray name="stress" >
   <v>       9.51484877       0.00000063       0.00000000 </v>
   <v>       0.00000063       9.51484804       0.00000000 </v>
   <v>       0.00000000       0.00000000      31.96528071 </v>
  </varray>
  <energy>
   <i name="e_fr_energy">   -454.34055379 </i>
   <i name="e_wo_entrp">   -454.34049653 </i>
   <i name="e_0_energy">     -0.00011451 </i>
  </energy>
  <time name="totalsc">   81.75   82.41</time>
  <eigenvalues>
   <array>
    <dimension dim="1">band</dimension>
    <dimension dim="2">kpoint</dimension>
    <dimension dim="3">spin</dimension>
    <field>eigene</field>
    <field>occ</field>
    <set>
     <set comment="spin 1">
      <set comment="kpoint 1">
       <r>  -31.7404    1.0000 </r>
       <r>  -22.2712    1.0000 </r>
       <r>  -21.5032    1.0000 </r>
       <r>  -21.5032    1.0000 </r>
       <r>  -21.3946    1.0000 </r>
       <r>  -21.3946    1.0000 </r>
       <r>  -21.3940    1.0000 </r>
       <r>  -20.8744    1.0000 </r>
       <r>  -19.8767    1.0000 </r>
       <r>  -19.8767    1.0000 </r>
       <r>  -19.5493    1.0000 </r>
       <r>  -19.5493    1.0000 </r>
       <r>  -19.5391    1.0000 </r>
       <r>  -19.1914    1.0000 </r>
       <r>  -18.9011    1.0000 </r>
       <r>  -18.9011    1.0000 </r>
       <r>  -18.6438    1.0000 </r>
       <r>  -18.6432    1.0000 </r>
       <r>  -18.6432    1.0000 </r>
       <r>  -17.8844    1.0000 </r>
       <r>  -17.0216    1.0000 </r>
       <r>  -17.0216    1.0000 </r>
       <r>  -16.4780    1.0000 </r>
       <r>  -16.4583    1.0000 </r>
       <r>  -16.4583    1.0000 </r>
       <r>  -16.0497    1.0000 </r>
       <r>  -15.9968    1.0000 </r>
       <r>  -15.9968    1.0000 </r>
       <r>  -15.4976    1.0000 </r>
       <r>  -15.4976    1.0000 </r>
       <r>  -15.4931    1.0000 </r>
       <r>  -15.0898    1.0000 </r>
       <r>  -14.6295    1.0000 </r>
       <r>  -14.6295    1.0000 </r>
       <r>  -14.1499    1.0000 </r>
       <r>  -14.1499    1.0000 </r>
       <r>  -14.1433    1.0000 </r>
       <r>  -13.9648    1.0000 </r>
       <r>  -12.9913    1.0000 </r>
       <r>  -12.9913    1.0000 </r>
       <r>  -12.0314    1.0000 </r>
       <r>  -11.7651    1.0000 </r>
       <r>  -11.7651    1.0000 </r>
       <r>  -11.7619    1.0000 </r>
       <r>  -11.6905    1.0000 </r>
       <r>  -11.6905    1.0000 </r>
       <r>  -11.6518    1.0000 </r>
       <r>  -11.6499    1.0000 </r>
       <r>  -11.6499    1.0000 </r>
       <r>  -11.6489    1.0000 </r>
       <r>  -10.8022    1.0000 </r>
       <r>  -10.8022    1.0000 </r>
       <r>  -10.4288    1.0000 </r>
       <r>  -10.3344    1.0000 </r>
       <r>  -10.2890    1.0000 </r>
       <r>  -10.2890    1.0000 </r>
       <r>  -10.2707    1.0000 </r>
       <r>  -10.0781    1.0000 </r>
       <r>   -9.6856    1.0000 </r>
       <r>   -9.6856    1.0000 </r>
       <r>   -9.3255    1.0000 </r>
       <r>   -9.3255    1.0000 </r>
       <r>   -9.3003    1.0000 </r>
       <r>   -9.2796    1.0000 </r>
       <r>   -9.2796    1.0000 </r>
       <r>   -9.0462    1.0000 </r>
       <r>   -9.0049    1.0000 </r>
       <r>   -9.0049    1.0000 </r>
       <r>   -8.9488    1.0000 </r>
       <r>   -8.9407    1.0000 </r>
       <r>   -8.9407    1.0000 </r>
       <r>   -8.9404    1.0000 </r>
       <r>   -8.9192    1.0000 </r>
       <r>   -8.9192    1.0000 </r>
       <r>   -8.8934    1.0000 </r>
       <r>   -8.4366    1.0000 </r>
       <r>   -7.8018    1.0000 </r>
       <r>   -7.8018    1.0000 </r>
       <r>   -7.3245    1.0000 </r>
       <r>   -7.3245    1.0000 </r>
       <r>   -7.3102    1.0000 </r>
       <r>   -7.3003    1.0000 </r>
       <r>   -7.2999    1.0000 </r>
       <r>   -7.2999    1.0000 </r>
       <r>   -7.1609    1.0000 </r>
       <r>   -7.1609    1.0000 </r>
       <r>   -7.1550    1.0000 </r>
       <r>   -6.7515    1.0000 </r>
       <r>   -6.5076    1.0000 </r>
       <r>   -6.5076    1.0000 </r>
       <r>   -6.2670    1.0000 </r>
       <r>   -6.2465    1.0000 </r>
       <r>   -6.2465    1.0000 </r>
       <r>   -5.9228    1.0000 </r>
       <r>   -5.9227    1.0000 </r>
       <r>   -5.1958    1.0000 </r>
       <r>   -4.7638    1.0000 </r>
       <r>   -4.7638    1.0000 </r>
       <r>   -4.2706    1.0000 </r>
       <r>   -4.2664    1.0000 </r>
       <r>   -4.2664    1.0000 </r>
       <r>   -3.2147    1.0000 </r>
       <r>   -3.2147    1.0000 </r>
       <r>   -2.9163    0.0021 </r>
       <r>   -1.4614    0.0000 </r>
       <r>   -1.4571    0.0000 </r>
       <r>   -1.4571    0.0000 </r>
       <r>   -0.9913    0.0000 </r>
       <r>   -0.9913    0.0000 </r>
       <r>   -0.5430    0.0000 </r>
       <r>    0.4170    0.0000 </r>
       <r>    0.4217    0.0000 </r>
       <r>    0.4217    0.0000 </r>
       <r>    0.5645    0.0000 </r>
       <r>    0.8435    0.0000 </r>
       <r>    0.8435    0.0000 </r>
       <r>    1.2941    0.0000 </r>
       <r>    1.3452    0.0000 </r>
       <r>    1.7518    0.0000 </r>
       <r>    1.8044    0.0000 </r>
       <r>    1.8044    0.0000 </r>
       <r>    1.8254    0.0000 </r>
       <r>    1.8293    0.0000 </r>
       <r>    1.8948    0.0000 </r>
       <r>    2.1763    0.0000 </r>
       <r>    2.1785    0.0000 </r>
       <r>    2.1794    0.0000 </r>
       <r>    2.3458    0.0000 </r>
       <r>    2.3476    0.0000 </r>
       <r>    3.6356    0.0000 </r>
       <r>    5.1572    0.0000 </r>
       <r>    5.4290    0.0000 </r>
      </set>
      <set comment="kpoint 2">
       <r>  -31.7405    1.0000 </r>
       <r>  -22.1891    1.0000 </r>
       <r>  -21.8694    1.0000 </r>
       <r>  -21.6614    1.0000 </r>
       <r>  -21.4547    1.0000 </r>
       <r>  -21.0348    1.0000 </r>
       <r>  -20.8973    1.0000 </r>
       <r>  -20.7276    1.0000 </r>
       <r>  -20.4203    1.0000 </r>
       <r>  -20.1624    1.0000 </r>
       <r>  -19.7871    1.0000 </r>
       <r>  -19.6993    1.0000 </r>
       <r>  -19.3265    1.0000 </r>
       <r>  -19.2431    1.0000 </r>
       <r>  -19.0619    1.0000 </r>
       <r>  -18.5930    1.0000 </r>
       <r>  -18.4581    1.0000 </r>
       <r>  -18.1215    1.0000 </r>
       <r>  -18.0631    1.0000 </r>
       <r>  -17.5910    1.0000 </r>
       <r>  -17.4980    1.0000 </r>
       <r>  -17.3009    1.0000 </r>
       <r>  -17.2768    1.0000 </r>
       <r>  -16.8516    1.0000 </r>
       <r>  -16.6586    1.0000 </r>
       <r>  -16.1763    1.0000 </r>
       <r>  -15.9781    1.0000 </r>
       <r>  -15.8478    1.0000 </r>
       <r>  -15.2985    1.0000 </r>
       <r>  -15.1700    1.0000 </r>
       <r>  -15.1344    1.0000 </r>
       <r>  -14.8850    1.0000 </r>
       <r>  -14.7820    1.0000 </r>
       <r>  -14.4782    1.0000 </r>
       <r>  -14.4562    1.0000 </r>
       <r>  -13.7674    1.0000 </r>
       <r>  -13.7602    1.0000 </r>
       <r>  -13.1963    1.0000 </r>
       <r>  -13.0896    1.0000 </r>
       <r>  -12.9344    1.0000 </r>
       <r>  -12.9046    1.0000 </r>
       <r>  -12.5854    1.0000 </r>
       <r>  -12.5502    1.0000 </r>
       <r>  -12.3902    1.0000 </r>
       <r>  -12.0223    1.0000 </r>
       <r>  -11.6636    1.0000 </r>
       <r>  -11.4476    1.0000 </r>
       <r>  -11.2964    1.0000 </r>
       <r>  -11.1219    1.0000 </r>
       <r>  -10.9145    1.0000 </r>
       <r>  -10.8503    1.0000 </r>
       <r>  -10.5844    1.0000 </r>
       <r>  -10.5329    1.0000 </r>
       <r>  -10.2855    1.0000 </r>
       <r>  -10.2370    1.0000 </r>
       <r>  -10.1615    1.0000 </r>
       <r>  -10.0493    1.0000 </r>
       <r>   -9.8535    1.0000 </r>
       <r>   -9.8205    1.0000 </r>
       <r>   -9.6541    1.0000 </r>
       <r>   -9.6073    1.0000 </r>
       <r>   -9.5607    1.0000 </r>
       <r>   -9.5274    1.0000 </r>
       <r>   -9.3712    1.0000 </r>
       <r>   -9.3406    1.0000 </r>
       <r>   -9.2597    1.0000 </r>
       <r>   -9.1759    1.0000 </r>
       <r>   -9.0998    1.0000 </r>
       <r>   -9.0826    1.0000 </r>
       <r>   -8.8648    1.0000 </r>
       <r>   -8.7132    1.0000 </r>
       <r>   -8.6646    1.0000 </r>
       <r>   -8.5046    1.0000 </r>
       <r>   -8.4027    1.0000 </r>
       <r>   -8.2877    1.0000 </r>
       <r>   -8.1335    1.0000 </r>
       <r>   -8.0945    1.0000 </r>
       <r>   -8.0661    1.0000 </r>
       <r>   -7.9716    1.0000 </r>
       <r>   -7.8079    1.0000 </r>
       <r>   -7.6203    1.0000 </r>
       <r>   -7.3606    1.0000 </r>
       <r>   -7.3365    1.0000 </r>
       <r>   -7.2666    1.0000 </r>
       <r>   -7.1973    1.0000 </r>
       <r>   -6.9203    1.0000 </r>
       <r>   -6.8731    1.0000 </r>
       <r>   -6.6930    1.0000 </r>
       <r>   -6.5912    1.0000 </r>
       <r>   -6.3487    1.0000 </r>
       <r>   -6.1854    1.0000 </r>
       <r>   -6.0735    1.0000 </r>
       <r>   -5.9218    1.0000 </r>
       <r>   -5.7392    1.0000 </r>
       <r>   -5.6407    1.0000 </r>
       <r>   -5.3225    1.0000 </r>
       <r>   -5.1151    1.0000 </r>
       <r>   -4.9701    1.0000 </r>
       <r>   -4.9227    1.0000 </r>
       <r>   -4.2700    1.0000 </r>
       <r>   -4.1689    1.0000 </r>
       <r>   -3.3367    1.0000 </r>
       <r>   -3.1369    0.9996 </r>
       <r>   -2.8040    0.0000 </r>
       <r>   -1.5913    0.0000 </r>
       <r>   -1.4237    0.0000 </r>
       <r>   -0.8400    0.0000 </r>
       <r>   -0.8192    0.0000 </r>
       <r>   -0.7061    0.0000 </r>
       <r>   -0.6680    0.0000 </r>
       <r>   -0.1287    0.0000 </r>
       <r>   -0.0062    0.0000 </r>
       <r>    0.2929    0.0000 </r>
       <r>    0.7068    0.0000 </r>
       <r>    0.7268    0.0000 </r>
       <r>    1.1008    0.0000 </r>
       <r>    1.1763    0.0000 </r>
       <r>    1.3646    0.0000 </r>
       <r>    1.4690    0.0000 </r>
       <r>    1.5397    0.0000 </r>
       <r>    1.5723    0.0000 </r>
       <r>    1.6387    0.0000 </r>
       <r>    1.8242    0.0000 </r>
       <r>    1.9192    0.0000 </r>
       <r>    2.0391    0.0000 </r>
       <r>    2.2222    0.0000 </r>
       <r>    2.3315    0.0000 </r>
       <r>    2.3445    0.0000 </r>
       <r>    2.3610    0.0000 </r>
       <r>    2.4012    0.0000 </r>
       <r>    2.6972    0.0000 </r>
       <r>    2.8694    0.0000 </r>
      </set>
      <set comment="kpoint 3">
       <r>  -31.7405    1.0000 </r>
       <r>  -22.0806    1.0000 </r>
       <r>  -22.0077    1.0000 </r>
       <r>  -21.8018    1.0000 </r>
       <r>  -21.1722    1.0000 </r>
       <r>  -21.1507    1.0000 </r>
       <r>  -20.8676    1.0000 </r>
       <r>  -20.4133    1.0000 </r>
       <r>  -20.3390    1.0000 </r>
       <r>  -20.1722    1.0000 </r>
       <r>  -20.1506    1.0000 </r>
       <r>  -20.1431    1.0000 </r>
       <r>  -19.5671    1.0000 </r>
       <r>  -18.8265    1.0000 </r>
       <r>  -18.6748    1.0000 </r>
       <r>  -18.3727    1.0000 </r>
       <r>  -18.3490    1.0000 </r>
       <r>  -18.3366    1.0000 </r>
       <r>  -17.9302    1.0000 </r>
       <r>  -17.8016    1.0000 </r>
       <r>  -17.6017    1.0000 </r>
       <r>  -17.2617    1.0000 </r>
       <r>  -17.1533    1.0000 </r>
       <r>  -17.1209    1.0000 </r>
       <r>  -16.5433    1.0000 </r>
       <r>  -16.4378    1.0000 </r>
       <r>  -16.2845    1.0000 </r>
       <r>  -15.8087    1.0000 </r>
       <r>  -15.6291    1.0000 </r>
       <r>  -15.1756    1.0000 </r>
       <r>  -14.9697    1.0000 </r>
       <r>  -14.6527    1.0000 </r>
       <r>  -13.9603    1.0000 </r>
       <r>  -13.9395    1.0000 </r>
       <r>  -13.9248    1.0000 </r>
       <r>  -13.8738    1.0000 </r>
       <r>  -13.8641    1.0000 </r>
       <r>  -13.7922    1.0000 </r>
       <r>  -13.6748    1.0000 </r>
       <r>  -13.4951    1.0000 </r>
       <r>  -13.0379    1.0000 </r>
       <r>  -12.4748    1.0000 </r>
       <r>  -12.2541    1.0000 </r>
       <r>  -12.0716    1.0000 </r>
       <r>  -11.8237    1.0000 </r>
       <r>  -11.7734    1.0000 </r>
       <r>  -11.5635    1.0000 </r>
       <r>  -11.5458    1.0000 </r>
       <r>  -11.5229    1.0000 </r>
       <r>  -10.9294    1.0000 </r>
       <r>  -10.8179    1.0000 </r>
       <r>  -10.5305    1.0000 </r>
       <r>  -10.2062    1.0000 </r>
       <r>  -10.2040    1.0000 </r>
       <r>  -10.1943    1.0000 </r>
       <r>  -10.0949    1.0000 </r>
       <r>  -10.0527    1.0000 </r>
       <r>  -10.0220    1.0000 </r>
       <r>   -9.9032    1.0000 </r>
       <r>   -9.7517    1.0000 </r>
       <r>   -9.7485    1.0000 </r>
       <r>   -9.5645    1.0000 </r>
       <r>   -9.4411    1.0000 </r>
       <r>   -9.4077    1.0000 </r>
       <r>   -9.1986    1.0000 </r>
       <r>   -9.0465    1.0000 </r>
       <r>   -9.0337    1.0000 </r>
       <r>   -8.9019    1.0000 </r>
       <r>   -8.8850    1.0000 </r>
       <r>   -8.6879    1.0000 </r>
       <r>   -8.6374    1.0000 </r>
       <r>   -8.6355    1.0000 </r>
       <r>   -8.6242    1.0000 </r>
       <r>   -8.5830    1.0000 </r>
       <r>   -8.3746    1.0000 </r>
       <r>   -8.2523    1.0000 </r>
       <r>   -8.1650    1.0000 </r>
       <r>   -8.0354    1.0000 </r>
       <r>   -7.9840    1.0000 </r>
       <r>   -7.8797    1.0000 </r>
       <r>   -7.8581    1.0000 </r>
       <r>   -7.8549    1.0000 </r>
       <r>   -7.2248    1.0000 </r>
       <r>   -7.1849    1.0000 </r>
       <r>   -7.1276    1.0000 </r>
       <r>   -6.8857    1.0000 </r>
       <r>   -6.7219    1.0000 </r>
       <r>   -6.6130    1.0000 </r>
       <r>   -6.4603    1.0000 </r>
       <r>   -6.2677    1.0000 </r>
       <r>   -6.1025    1.0000 </r>
       <r>   -5.9167    1.0000 </r>
       <r>   -5.9112    1.0000 </r>
       <r>   -5.8978    1.0000 </r>
       <r>   -5.4523    1.0000 </r>
       <r>   -5.4255    1.0000 </r>
       <r>   -5.1221    1.0000 </r>
       <r>   -5.0142    1.0000 </r>
       <r>   -4.9804    1.0000 </r>
       <r>   -4.9578    1.0000 </r>
       <r>   -3.7327    1.0000 </r>
       <r>   -3.4585    1.0000 </r>
       <r>   -3.2801    1.0000 </r>
       <r>   -2.3873    0.0000 </r>
       <r>   -2.2242    0.0000 </r>
       <r>   -0.9286    0.0000 </r>
       <r>   -0.8821    0.0000 </r>
       <r>   -0.8678    0.0000 </r>
       <r>   -0.5385    0.0000 </r>
       <r>   -0.2640    0.0000 </r>
       <r>   -0.2112    0.0000 </r>
       <r>    0.2519    0.0000 </r>
       <r>    0.2582    0.0000 </r>
       <r>    0.2604    0.0000 </r>
       <r>    0.5988    0.0000 </r>
       <r>    0.7923    0.0000 </r>
       <r>    0.9497    0.0000 </r>
       <r>    0.9763    0.0000 </r>
       <r>    1.0642    0.0000 </r>
       <r>    1.7378    0.0000 </r>
       <r>    1.7505    0.0000 </r>
       <r>    1.7748    0.0000 </r>
       <r>    1.8315    0.0000 </r>
       <r>    2.1893    0.0000 </r>
       <r>    2.2432    0.0000 </r>
       <r>    2.2469    0.0000 </r>
       <r>    2.9788    0.0000 </r>
       <r>    3.0013    0.0000 </r>
       <r>    3.0301    0.0000 </r>
       <r>    3.1292    0.0000 </r>
       <r>    3.2037    0.0000 </r>
       <r>    3.9856    0.0000 </r>
      </set>
     </set>
    </set>
   </array>
  </eigenvalues>
  <separator name="orbital magnetization" >
   <v name="MAGDIPOLOUT">      0.00000000      0.00000000      0.00000000</v>
  </separator>
  <dos>
   <i name="efermi">     -3.01728796 </i>
   <total>
    <array>
     <dimension dim="1">gridpoints</dimension>
     <dimension dim="2">spin</dimension>
     <field>energy</field>
     <field>total</field>
     <field>integrated</field>
     <set>
      <set comment="spin 1">
       <r>   -33.5990     0.0000     0.0000 </r>
       <r>   -33.4627     0.0000     0.0000 </r>
       <r>   -33.3264     0.0000     0.0000 </r>
       <r>   -33.1902     0.0000     0.0000 </r>
       <r>   -33.0539     0.0000     0.0000 </r>
       <r>   -32.9176     0.0000     0.0000 </r>
       <r>   -32.7813     0.0000     0.0000 </r>
       <r>   -32.6450     0.0000     0.0000 </r>
       <r>   -32.5087     0.0000     0.0000 </r>
       <r>   -32.3724     0.0000     0.0000 </r>
       <r>   -32.2361     0.0000     0.0000 </r>
       <r>   -32.0998     0.0000     0.0000 </r>
       <r>   -31.9636     0.0000     0.0000 </r>
       <r>   -31.8273     0.1036     0.0141 </r>
       <r>   -31.6910    13.3871     1.8386 </r>
       <r>   -31.5547     1.1841     2.0000 </r>
       <r>   -31.4184     0.0000     2.0000 </r>
       <r>   -31.2821     0.0000     2.0000 </r>
       <r>   -31.1458     0.0000     2.0000 </r>
       <r>   -31.0095     0.0000     2.0000 </r>
       <r>   -30.8732     0.0000     2.0000 </r>
       <r>   -30.7370     0.0000     2.0000 </r>
       <r>   -30.6007     0.0000     2.0000 </r>
       <r>   -30.4644     0.0000     2.0000 </r>
       <r>   -30.3281     0.0000     2.0000 </r>
       <r>   -30.1918     0.0000     2.0000 </r>
       <r>   -30.0555     0.0000     2.0000 </r>
       <r>   -29.9192     0.0000     2.0000 </r>
       <r>   -29.7829     0.0000     2.0000 </r>
       <r>   -29.6467     0.0000     2.0000 </r>
       <r>   -29.5104     0.0000     2.0000 </r>
       <r>   -29.3741     0.0000     2.0000 </r>
       <r>   -29.2378     0.0000     2.0000 </r>
       <r>   -29.1015     0.0000     2.0000 </r>
       <r>   -28.9652     0.0000     2.0000 </r>
       <r>   -28.8289     0.0000     2.0000 </r>
       <r>   -28.6926     0.0000     2.0000 </r>
       <r>   -28.5563     0.0000     2.0000 </r>
       <r>   -28.4201     0.0000     2.0000 </r>
       <r>   -28.2838     0.0000     2.0000 </r>
       <r>   -28.1475     0.0000     2.0000 </r>
       <r>   -28.0112     0.0000     2.0000 </r>
       <r>   -27.8749     0.0000     2.0000 </r>
       <r>   -27.7386     0.0000     2.0000 </r>
       <r>   -27.6023     0.0000     2.0000 </r>
       <r>   -27.4660     0.0000     2.0000 </r>
       <r>   -27.3298     0.0000     2.0000 </r>
       <r>   -27.1935     0.0000     2.0000 </r>
       <r>   -27.0572     0.0000     2.0000 </r>
       <r>   -26.9209     0.0000     2.0000 </r>
       <r>   -26.7846     0.0000     2.0000 </r>
       <r>   -26.6483     0.0000     2.0000 </r>
       <r>   -26.5120     0.0000     2.0000 </r>
       <r>   -26.3757     0.0000     2.0000 </r>
       <r>   -26.2394     0.0000     2.0000 </r>
       <r>   -26.1032     0.0000     2.0000 </r>
       <r>   -25.9669     0.0000     2.0000 </r>
       <r>   -25.8306     0.0000     2.0000 </r>
       <r>   -25.6943     0.0000     2.0000 </r>
       <r>   -25.5580     0.0000     2.0000 </r>
       <r>   -25.4217     0.0000     2.0000 </r>
       <r>   -25.2854     0.0000     2.0000 </r>
       <r>   -25.1491     0.0000     2.0000 </r>
       <r>   -25.0129     0.0000     2.0000 </r>
       <r>   -24.8766     0.0000     2.0000 </r>
       <r>   -24.7403     0.0000     2.0000 </r>
       <r>   -24.6040     0.0000     2.0000 </r>
       <r>   -24.4677     0.0000     2.0000 </r>
       <r>   -24.3314     0.0000     2.0000 </r>
       <r>   -24.1951     0.0000     2.0000 </r>
       <r>   -24.0588     0.0000     2.0000 </r>
       <r>   -23.9225     0.0000     2.0000 </r>
       <r>   -23.7863     0.0000     2.0000 </r>
       <r>   -23.6500     0.0000     2.0000 </r>
       <r>   -23.5137     0.0000     2.0000 </r>
       <r>   -23.3774     0.0000     2.0000 </r>
       <r>   -23.2411     0.0000     2.0000 </r>
       <r>   -23.1048     0.0000     2.0000 </r>
       <r>   -22.9685     0.0000     2.0000 </r>
       <r>   -22.8322     0.0000     2.0000 </r>
       <r>   -22.6959     0.0000     2.0000 </r>
       <r>   -22.5597     0.0000     2.0000 </r>
       <r>   -22.4234     0.0000     2.0000 </r>
       <r>   -22.2871     0.5597     2.0763 </r>
       <r>   -22.1508     9.5687     3.3804 </r>
       <r>   -22.0145     5.8293     4.1749 </r>
       <r>   -21.8782     5.9579     4.9868 </r>
       <r>   -21.7419     9.0272     6.2171 </r>
       <r>   -21.6056     9.2661     7.4800 </r>
       <r>   -21.4694     6.6653     8.3884 </r>
       <r>   -21.3331    11.6193     9.9720 </r>
       <r>   -21.1968     1.3126    10.1509 </r>
       <r>   -21.0605     7.6859    11.1984 </r>
       <r>   -20.9242     9.9991    12.5611 </r>
       <r>   -20.7879    12.5577    14.2726 </r>
       <r>   -20.6516     9.2588    15.5345 </r>
       <r>   -20.5153     0.1962    15.5612 </r>
       <r>   -20.3790    11.6884    17.1542 </r>
       <r>   -20.2428     4.7750    17.8050 </r>
       <r>   -20.1065    17.8722    20.2407 </r>
       <r>   -19.9702     1.5081    20.4463 </r>
       <r>   -19.8339     3.7891    20.9627 </r>
       <r>   -19.6976    14.2636    22.9066 </r>
       <r>   -19.5613     8.2321    24.0286 </r>
       <r>   -19.4250     4.7061    24.6700 </r>
       <r>   -19.2887     9.3282    25.9413 </r>
       <r>   -19.1525    11.6243    27.5255 </r>
       <r>   -19.0162     9.0452    28.7583 </r>
       <r>   -18.8799     3.5400    29.2408 </r>
       <r>   -18.7436     4.0046    29.7865 </r>
       <r>   -18.6073    10.5948    31.2305 </r>
       <r>   -18.4710    10.7801    32.6997 </r>
       <r>   -18.3347    12.9180    34.4603 </r>
       <r>   -18.1984     3.2900    34.9086 </r>
       <r>   -18.0621    14.1842    36.8418 </r>
       <r>   -17.9259     7.2243    37.8264 </r>
       <r>   -17.7896     4.9650    38.5030 </r>
       <r>   -17.6533     1.8203    38.7511 </r>
       <r>   -17.5170    15.1125    40.8108 </r>
       <r>   -17.3807     7.2258    41.7956 </r>
       <r>   -17.2444    19.3954    44.4389 </r>
       <r>   -17.1081     8.3468    45.5765 </r>
       <r>   -16.9718     4.4810    46.1872 </r>
       <r>   -16.8355     6.8622    47.1225 </r>
       <r>   -16.6993     4.4023    47.7224 </r>
       <r>   -16.5630     9.4861    49.0153 </r>
       <r>   -16.4267     8.5331    50.1783 </r>
       <r>   -16.2904     3.3739    50.6381 </r>
       <r>   -16.1541     9.0350    51.8695 </r>
       <r>   -16.0178     6.0983    52.7006 </r>
       <r>   -15.8815    12.8606    54.4533 </r>
       <r>   -15.7452    11.2135    55.9816 </r>
       <r>   -15.6090     2.4722    56.3185 </r>
       <r>   -15.4727     4.5734    56.9418 </r>
       <r>   -15.3364     2.6318    57.3005 </r>
       <r>   -15.2001    11.4036    58.8547 </r>
       <r>   -15.0638    20.8438    61.6954 </r>
       <r>   -14.9275     4.6074    62.3234 </r>
       <r>   -14.7912    12.8851    64.0795 </r>
       <r>   -14.6549     8.2551    65.2045 </r>
       <r>   -14.5186     5.8186    65.9976 </r>
       <r>   -14.3824    17.7413    68.4155 </r>
       <r>   -14.2461     0.2261    68.4463 </r>
       <r>   -14.1098     4.1802    69.0160 </r>
       <r>   -13.9735     3.3461    69.4720 </r>
       <r>   -13.8372    14.7509    71.4824 </r>
       <r>   -13.7009    23.3448    74.6640 </r>
       <r>   -13.5646     3.3575    75.1216 </r>
       <r>   -13.4283     3.0876    75.5424 </r>
       <r>   -13.2921     0.1292    75.5600 </r>
       <r>   -13.1558     8.8181    76.7618 </r>
       <r>   -13.0195    13.5405    78.6073 </r>
       <r>   -12.8832    19.8755    81.3161 </r>
       <r>   -12.7469     3.3878    81.7778 </r>
       <r>   -12.6106     2.7534    82.1530 </r>
       <r>   -12.4743    18.3820    84.6583 </r>
       <r>   -12.3380    10.8194    86.1328 </r>
       <r>   -12.2017     3.6918    86.6360 </r>
       <r>   -12.0655     3.4418    87.1051 </r>
       <r>   -11.9292    11.4183    88.6612 </r>
       <r>   -11.7929     4.6437    89.2941 </r>
       <r>   -11.6566    17.9814    91.7448 </r>
       <r>   -11.5203    15.7078    93.8856 </r>
       <r>   -11.3840    11.9644    95.5162 </r>
       <r>   -11.2477     9.2478    96.7765 </r>
       <r>   -11.1114     6.8586    97.7113 </r>
       <r>   -10.9751     4.4919    98.3235 </r>
       <r>   -10.8389    19.6458   101.0010 </r>
       <r>   -10.7026     8.9550   102.2214 </r>
       <r>   -10.5663     9.0124   103.4497 </r>
       <r>   -10.4300    14.5948   105.4388 </r>
       <r>   -10.2937     8.7342   106.6292 </r>
       <r>   -10.1574    32.3072   111.0323 </r>
       <r>   -10.0211    22.2340   114.0625 </r>
       <r>    -9.8848     8.8774   115.2724 </r>
       <r>    -9.7486    21.6967   118.2294 </r>
       <r>    -9.6123    20.4492   121.0164 </r>
       <r>    -9.4760    28.2289   124.8637 </r>
       <r>    -9.3397    21.1662   127.7484 </r>
       <r>    -9.2034    26.0470   131.2983 </r>
       <r>    -9.0671    26.6795   134.9344 </r>
       <r>    -8.9308    21.1247   137.8135 </r>
       <r>    -8.7945    20.7903   140.6469 </r>
       <r>    -8.6582    19.8866   143.3573 </r>
       <r>    -8.5220    19.0527   145.9539 </r>
       <r>    -8.3857    16.3277   148.1792 </r>
       <r>    -8.2494    15.3969   150.2776 </r>
       <r>    -8.1131    16.7806   152.5646 </r>
       <r>    -7.9768    27.9534   156.3743 </r>
       <r>    -7.8405    16.4456   158.6157 </r>
       <r>    -7.7042    13.4784   160.4526 </r>
       <r>    -7.5679     9.0443   161.6852 </r>
       <r>    -7.4317     0.9357   161.8128 </r>
       <r>    -7.2954    26.3075   165.3982 </r>
       <r>    -7.1591    29.6775   169.4429 </r>
       <r>    -7.0228     7.3622   170.4463 </r>
       <r>    -6.8865    13.1590   172.2397 </r>
       <r>    -6.7502    11.7010   173.8344 </r>
       <r>    -6.6139    16.6475   176.1032 </r>
       <r>    -6.4776    12.6528   177.8277 </r>
       <r>    -6.3413     8.6980   179.0131 </r>
       <r>    -6.2051    14.3881   180.9740 </r>
       <r>    -6.0688    15.6381   183.1053 </r>
       <r>    -5.9325    12.4361   184.8002 </r>
       <r>    -5.7962    15.8368   186.9586 </r>
       <r>    -5.6599    12.0224   188.5971 </r>
       <r>    -5.5236     7.1079   189.5659 </r>
       <r>    -5.3873     6.2087   190.4120 </r>
       <r>    -5.2510     9.9074   191.7623 </r>
       <r>    -5.1148     8.5618   192.9292 </r>
       <r>    -4.9785    16.1372   195.1285 </r>
       <r>    -4.8422    19.3679   197.7681 </r>
       <r>    -4.7059     3.1672   198.1997 </r>
       <r>    -4.5696     0.1650   198.2222 </r>
       <r>    -4.4333     0.0000   198.2222 </r>
       <r>    -4.2970     3.1779   198.6553 </r>
       <r>    -4.1607    17.2685   201.0088 </r>
       <r>    -4.0244     4.0113   201.5555 </r>
       <r>    -3.8882     0.0002   201.5556 </r>
       <r>    -3.7519     0.9598   201.6864 </r>
       <r>    -3.6156     2.2998   201.9998 </r>
       <r>    -3.4793     0.9080   202.1235 </r>
       <r>    -3.3430     6.6728   203.0330 </r>
       <r>    -3.2067    10.8229   204.5080 </r>
       <r>    -3.0704    10.6537   205.9600 </r>
       <r>    -2.9341     0.7956   206.0684 </r>
       <r>    -2.7978     6.6972   206.9812 </r>
       <r>    -2.6616     4.2143   207.5555 </r>
       <r>    -2.5253     0.0004   207.5556 </r>
       <r>    -2.3890     1.5684   207.7693 </r>
       <r>    -2.2527     2.3785   208.0935 </r>
       <r>    -2.1164     2.5713   208.4439 </r>
       <r>    -1.9801     0.0037   208.4444 </r>
       <r>    -1.8438     0.0000   208.4444 </r>
       <r>    -1.7075     0.0050   208.4451 </r>
       <r>    -1.5713     6.9931   209.3982 </r>
       <r>    -1.4350    10.1127   210.7764 </r>
       <r>    -1.2987     7.3451   211.7775 </r>
       <r>    -1.1624     0.0020   211.7778 </r>
       <r>    -1.0261     0.5388   211.8512 </r>
       <r>    -0.8898     8.7539   213.0443 </r>
       <r>    -0.7535    23.8918   216.3004 </r>
       <r>    -0.6172    18.2655   218.7898 </r>
       <r>    -0.4809     5.3850   219.5237 </r>
       <r>    -0.3447     0.2707   219.5606 </r>
       <r>    -0.2084     4.8889   220.2269 </r>
       <r>    -0.0721    11.1481   221.7463 </r>
       <r>     0.0642     9.7868   223.0801 </r>
       <r>     0.2005     0.8246   223.1925 </r>
       <r>     0.3368    17.8469   225.6248 </r>
       <r>     0.4731     5.6921   226.4006 </r>
       <r>     0.6094     3.8323   226.9229 </r>
       <r>     0.7456    17.0277   229.2435 </r>
       <r>     0.8819    10.0742   230.6165 </r>
       <r>     1.0182     6.8314   231.5476 </r>
       <r>     1.1545    15.0877   233.6039 </r>
       <r>     1.2908     8.8277   234.8070 </r>
       <r>     1.4271    12.7825   236.5491 </r>
       <r>     1.5634    20.3853   239.3273 </r>
       <r>     1.6997    18.4454   241.8412 </r>
       <r>     1.8360    23.4904   245.0427 </r>
       <r>     1.9722    18.0481   247.5024 </r>
       <r>     2.1085    10.0940   248.8781 </r>
       <r>     2.2448    18.4792   251.3966 </r>
       <r>     2.3811    35.8850   256.2873 </r>
       <r>     2.5174    12.5614   257.9993 </r>
       <r>     2.6537     1.0747   258.1458 </r>
       <r>     2.7900     8.7918   259.3440 </r>
       <r>     2.9263     9.4623   260.6336 </r>
       <r>     3.0626     9.3733   261.9111 </r>
       <r>     3.1988     5.2850   262.6314 </r>
       <r>     3.3351     1.8893   262.8888 </r>
       <r>     3.4714     0.0003   262.8889 </r>
       <r>     3.6077     0.3501   262.9366 </r>
       <r>     3.7440     1.2786   263.1109 </r>
       <r>     3.8803     0.0065   263.1118 </r>
       <r>     4.0166     2.6346   263.4708 </r>
       <r>     4.1529     0.6217   263.5556 </r>
       <r>     4.2891     0.0000   263.5556 </r>
       <r>     4.4254     0.0000   263.5556 </r>
       <r>     4.5617     0.0000   263.5556 </r>
       <r>     4.6980     0.0000   263.5556 </r>
       <r>     4.8343     0.0000   263.5556 </r>
       <r>     4.9706     0.0000   263.5556 </r>
       <r>     5.1069     0.1262   263.5728 </r>
       <r>     5.2432     1.4921   263.7761 </r>
       <r>     5.3795     0.1435   263.7957 </r>
       <r>     5.5157     1.4877   263.9984 </r>
       <r>     5.6520     0.0115   264.0000 </r>
       <r>     5.7883     0.0000   264.0000 </r>
       <r>     5.9246     0.0000   264.0000 </r>
       <r>     6.0609     0.0000   264.0000 </r>
       <r>     6.1972     0.0000   264.0000 </r>
       <r>     6.3335     0.0000   264.0000 </r>
       <r>     6.4698     0.0000   264.0000 </r>
       <r>     6.6060     0.0000   264.0000 </r>
       <r>     6.7423     0.0000   264.0000 </r>
       <r>     6.8786     0.0000   264.0000 </r>
       <r>     7.0149     0.0000   264.0000 </r>
       <r>     7.1512     0.0000   264.0000 </r>
       <r>     7.2875     0.0000   264.0000 </r>
      </set>
     </set>
    </array>
   </total>
  </dos>
 </calculation>
 <structure name="finalpos" >
  <crystal>
   <varray name="basis" >
    <v>      12.30000019       0.00000000       0.00000000 </v>
    <v>       6.15000080      10.65211222       0.00000000 </v>
    <v>       0.00000000       0.00000000      20.00000000 </v>
   </varray>
   <i name="volume">   2620.41964732 </i>
   <varray name="rec_basis" >
    <v>       0.08130081      -0.04693905       0.00000000 </v>
    <v>       0.00000000       0.09387809       0.00000000 </v>
    <v>       0.00000000       0.00000000       0.05000000 </v>
   </varray>
  </crystal>
  <varray name="positions" >
   <v>       0.00000000       0.00000000       0.41799748 </v>
   <v>       0.20000000       0.00000000       0.41799748 </v>
   <v>       0.40000000       0.00000000       0.41799748 </v>
   <v>       0.60000000       0.00000000       0.41799748 </v>
   <v>       0.80000000       0.00000000       0.41799748 </v>
   <v>       0.00000000       0.20000000       0.41799748 </v>
   <v>       0.20000000       0.20000000       0.41799748 </v>
   <v>       0.40000000       0.20000000       0.41799748 </v>
   <v>       0.60000000       0.20000000       0.41799748 </v>
   <v>       0.80000000       0.20000000       0.41799748 </v>
   <v>       0.00000000       0.40000000       0.41799748 </v>
   <v>       0.20000000       0.40000000       0.41799748 </v>
   <v>       0.40000000       0.40000000       0.41799748 </v>
   <v>       0.60000000       0.40000000       0.41799748 </v>
   <v>       0.80000000       0.40000000       0.41799748 </v>
   <v>       0.00000000       0.60000000       0.41799748 </v>
   <v>       0.20000000       0.60000000       0.41799748 </v>
   <v>       0.40000000       0.60000000       0.41799748 </v>
   <v>       0.60000000       0.60000000       0.41799748 </v>
   <v>       0.80000000       0.60000000       0.41799748 </v>
   <v>       0.00000000       0.80000000       0.41799748 </v>
   <v>       0.20000000       0.80000000       0.41799748 </v>
   <v>       0.40000000       0.80000000       0.41799748 </v>
   <v>       0.60000000       0.80000000       0.41799748 </v>
   <v>       0.80000000       0.80000000       0.41799748 </v>
   <v>       0.06666667       0.06666660       0.41800609 </v>
   <v>       0.26666667       0.06666660       0.41800609 </v>
   <v>       0.46666667       0.06666660       0.41800609 </v>
   <v>       0.66666667       0.06666660       0.41800609 </v>
   <v>       0.86666667       0.06666660       0.41800609 </v>
   <v>       0.06666667       0.26666660       0.41800609 </v>
   <v>       0.26666667       0.26666660       0.41800609 </v>
   <v>       0.46666667       0.26666660       0.41800609 </v>
   <v>       0.66666667       0.26666660       0.41800609 </v>
   <v>       0.86666667       0.26666660       0.41800609 </v>
   <v>       0.06666667       0.46666660       0.41800609 </v>
   <v>       0.26666667       0.46666660       0.41800609 </v>
   <v>       0.46666667       0.46666660       0.41800609 </v>
   <v>       0.66666667       0.46666660       0.41800609 </v>
   <v>       0.86666667       0.46666660       0.41800609 </v>
   <v>       0.06666667       0.66666660       0.41800609 </v>
   <v>       0.26666667       0.66666660       0.41800609 </v>
   <v>       0.46666667       0.66666660       0.41800609 </v>
   <v>       0.66666667       0.66666660       0.41800609 </v>
   <v>       0.86666667       0.66666660       0.41800609 </v>
   <v>       0.06666667       0.86666660       0.41800609 </v>
   <v>       0.26666667       0.86666660       0.41800609 </v>
   <v>       0.46666667       0.86666660       0.41800609 </v>
   <v>       0.66666667       0.86666660       0.41800609 </v>
   <v>       0.86666667       0.86666660       0.41800609 </v>
   <v>       0.40000000       0.40000000       0.46800609 </v>
  </varray>
  <varray name="velocities" >
   <v>       0.00000000       0.00000000       0.00000000 </v>
   <v>       0.00000000       0.00000000       0.00000000 </v>
   <v>       0.00000000       0.00000000       0.00000000 </v>
   <v>       0.00000000       0.00000000       0.00000000 </v>
   <v>       0.00000000       0.00000000       0.00000000 </v>
   <v>       0.00000000       0.00000000       0.00000000 </v>
   <v>       0.00000000       0.00000000       0.00000000 </v>
   <v>       0.00000000       0.00000000       0.00000000 </v>
   <v>       0.00000000       0.00000000       0.00000000 </v>
   <v>       0.00000000       0.00000000       0.00000000 </v>
   <v>       0.00000000       0.00000000       0.00000000 </v>
   <v>       0.00000000       0.00000000       0.00000000 </v>
   <v>       0.00000000       0.00000000       0.00000000 </v>
   <v>       0.00000000       0.00000000       0.00000000 </v>
   <v>       0.00000000       0.00000000       0.00000000 </v>
   <v>       0.00000000       0.00000000       0.00000000 </v>
   <v>       0.00000000       0.00000000       0.00000000 </v>
   <v>       0.00000000       0.00000000       0.00000000 </v>
   <v>       0.00000000       0.00000000       0.00000000 </v>
   <v>       0.00000000       0.00000000       0.00000000 </v>
   <v>       0.00000000       0.00000000       0.00000000 </v>
   <v>       0.00000000       0.00000000       0.00000000 </v>
   <v>       0.00000000       0.00000000       0.00000000 </v>
   <v>       0.00000000       0.00000000       0.00000000 </v>
   <v>       0.00000000       0.00000000       0.00000000 </v>
   <v>       0.00000000       0.00000000       0.00000000 </v>
   <v>       0.00000000       0.00000000       0.00000000 </v>
   <v>       0.00000000       0.00000000       0.00000000 </v>
   <v>       0.00000000       0.00000000       0.00000000 </v>
   <v>       0.00000000       0.00000000       0.00000000 </v>
   <v>       0.00000000       0.00000000       0.00000000 </v>
   <v>       0.00000000       0.00000000       0.00000000 </v>
   <v>       0.00000000       0.00000000       0.00000000 </v>
   <v>       0.00000000       0.00000000       0.00000000 </v>
   <v>       0.00000000       0.00000000       0.00000000 </v>
   <v>       0.00000000       0.00000000       0.00000000 </v>
   <v>       0.00000000       0.00000000       0.00000000 </v>
   <v>       0.00000000       0.00000000       0.00000000 </v>
   <v>       0.00000000       0.00000000       0.00000000 </v>
   <v>       0.00000000       0.00000000       0.00000000 </v>
   <v>       0.00000000       0.00000000       0.00000000 </v>
   <v>       0.00000000       0.00000000       0.00000000 </v>
   <v>       0.00000000       0.00000000       0.00000000 </v>
   <v>       0.00000000       0.00000000       0.00000000 </v>
   <v>       0.00000000       0.00000000       0.00000000 </v>
   <v>       0.00000000       0.00000000       0.00000000 </v>
   <v>       0.00000000       0.00000000       0.00000000 </v>
   <v>       0.00000000       0.00000000       0.00000000 </v>
   <v>       0.00000000       0.00000000       0.00000000 </v>
   <v>       0.00000000       0.00000000       0.00000000 </v>
   <v>       0.00000000       0.00000000       0.00000000 </v>
  </varray>
 </structure>
</modeling>
