  51  51   0   0
  0.5138078E+02  0.1230000E-08  0.1230000E-08  0.2000000E-08  0.5000000E-15
  1.000000000000000E-004
  CAR 
                                         
      5.96838494    -33.57105795  301     -3.01777842      1.00000000
    -33.571  0.0000E+00  0.0000E+00
    -33.439  0.0000E+00  0.0000E+00
    -33.307  0.0000E+00  0.0000E+00
    -33.176  0.0000E+00  0.0000E+00
    -33.044  0.0000E+00  0.0000E+00
    -32.912  0.0000E+00  0.0000E+00
    -32.780  0.0000E+00  0.0000E+00
    -32.648  0.0000E+00  0.0000E+00
    -32.517  0.0000E+00  0.0000E+00
    -32.385  0.0000E+00  0.0000E+00
    -32.253  0.0000E+00  0.0000E+00
    -32.121  0.0000E+00  0.0000E+00
    -31.989  0.7979E-08  0.1052E-08
    -31.858  0.1337E+00  0.1762E-01
    -31.726  0.1371E+02  0.1824E+01
    -31.594  0.1333E+01  0.2000E+01
    -31.462  0.2833E-05  0.2000E+01
    -31.330  0.0000E+00  0.2000E+01
    -31.199  0.0000E+00  0.2000E+01
    -31.067  0.0000E+00  0.2000E+01
    -30.935  0.0000E+00  0.2000E+01
    -30.803  0.0000E+00  0.2000E+01
    -30.671  0.0000E+00  0.2000E+01
    -30.540  0.0000E+00  0.2000E+01
    -30.408  0.0000E+00  0.2000E+01
    -30.276  0.0000E+00  0.2000E+01
    -30.144  0.0000E+00  0.2000E+01
    -30.013  0.0000E+00  0.2000E+01
    -29.881  0.0000E+00  0.2000E+01
    -29.749  0.0000E+00  0.2000E+01
    -29.617  0.0000E+00  0.2000E+01
    -29.485  0.0000E+00  0.2000E+01
    -29.354  0.0000E+00  0.2000E+01
    -29.222  0.0000E+00  0.2000E+01
    -29.090  0.0000E+00  0.2000E+01
    -28.958  0.0000E+00  0.2000E+01
    -28.826  0.0000E+00  0.2000E+01
    -28.695  0.0000E+00  0.2000E+01
    -28.563  0.0000E+00  0.2000E+01
    -28.431  0.0000E+00  0.2000E+01
    -28.299  0.0000E+00  0.2000E+01
    -28.167  0.0000E+00  0.2000E+01
    -28.036  0.0000E+00  0.2000E+01
    -27.904  0.0000E+00  0.2000E+01
    -27.772  0.0000E+00  0.2000E+01
    -27.640  0.0000E+00  0.2000E+01
    -27.508  0.0000E+00  0.2000E+01
    -27.377  0.0000E+00  0.2000E+01
    -27.245  0.0000E+00  0.2000E+01
    -27.113  0.0000E+00  0.2000E+01
    -26.981  0.0000E+00  0.2000E+01
    -26.849  0.0000E+00  0.2000E+01
    -26.718  0.0000E+00  0.2000E+01
    -26.586  0.0000E+00  0.2000E+01
    -26.454  0.0000E+00  0.2000E+01
    -26.322  0.0000E+00  0.2000E+01
    -26.190  0.0000E+00  0.2000E+01
    -26.059  0.0000E+00  0.2000E+01
    -25.927  0.0000E+00  0.2000E+01
    -25.795  0.0000E+00  0.2000E+01
    -25.663  0.0000E+00  0.2000E+01
    -25.531  0.0000E+00  0.2000E+01
    -25.400  0.0000E+00  0.2000E+01
    -25.268  0.0000E+00  0.2000E+01
    -25.136  0.0000E+00  0.2000E+01
    -25.004  0.0000E+00  0.2000E+01
    -24.872  0.0000E+00  0.2000E+01
    -24.741  0.0000E+00  0.2000E+01
    -24.609  0.0000E+00  0.2000E+01
    -24.477  0.0000E+00  0.2000E+01
    -24.345  0.0000E+00  0.2000E+01
    -24.213  0.0000E+00  0.2000E+01
    -24.082  0.0000E+00  0.2000E+01
    -23.950  0.0000E+00  0.2000E+01
    -23.818  0.0000E+00  0.2000E+01
    -23.686  0.0000E+00  0.2000E+01
    -23.554  0.0000E+00  0.2000E+01
    -23.423  0.0000E+00  0.2000E+01
    -23.291  0.0000E+00  0.2000E+01
    -23.159  0.0000E+00  0.2000E+01
    -23.027  0.0000E+00  0.2000E+01
    -22.895  0.0000E+00  0.2000E+01
    -22.764  0.0000E+00  0.2000E+01
    -22.632  0.0000E+00  0.2000E+01
    -22.500  0.6402E-10  0.2000E+01
    -22.368  0.4576E-02  0.2001E+01
    -22.236  0.2254E+01  0.2298E+01
    -22.105  0.1027E+02  0.3652E+01
    -21.973  0.5452E+01  0.4370E+01
    -21.841  0.8845E+01  0.5536E+01
    -21.709  0.6028E+01  0.6330E+01
    -21.577  0.9256E+01  0.7550E+01
    -21.446  0.9461E+01  0.8797E+01
    -21.314  0.9062E+01  0.9992E+01
    -21.182  0.1950E+01  0.1025E+02
    -21.050  0.8104E+01  0.1132E+02
    -20.918  0.9962E+01  0.1263E+02
    -20.787  0.1249E+02  0.1428E+02
    -20.655  0.9503E+01  0.1553E+02
    -20.523  0.2249E+00  0.1556E+02
    -20.391  0.1068E+02  0.1697E+02
    -20.259  0.6180E+01  0.1778E+02
    -20.128  0.1602E+02  0.1989E+02
    -19.996  0.4201E+01  0.2044E+02
    -19.864  0.2431E+01  0.2077E+02
    -19.732  0.1247E+02  0.2241E+02
    -19.600  0.9534E+01  0.2367E+02
    -19.469  0.7504E+01  0.2465E+02
    -19.337  0.3901E+01  0.2517E+02
    -19.205  0.1555E+02  0.2722E+02
    -19.073  0.6418E+01  0.2806E+02
    -18.941  0.6736E+01  0.2895E+02
    -18.810  0.5350E+01  0.2966E+02
    -18.678  0.3557E+01  0.3013E+02
    -18.546  0.1497E+02  0.3210E+02
    -18.414  0.1060E+02  0.3350E+02
    -18.282  0.1021E+02  0.3484E+02
    -18.151  0.2626E+01  0.3519E+02
    -18.019  0.1704E+02  0.3743E+02
    -17.887  0.4776E+01  0.3806E+02
    -17.755  0.4287E+01  0.3863E+02
    -17.623  0.3032E+01  0.3903E+02
    -17.492  0.1650E+02  0.4120E+02
    -17.360  0.4924E+01  0.4185E+02
    -17.228  0.2147E+02  0.4468E+02
    -17.096  0.7449E+01  0.4566E+02
    -16.964  0.4145E+01  0.4621E+02
    -16.833  0.7434E+01  0.4719E+02
    -16.701  0.4122E+01  0.4773E+02
    -16.569  0.9575E+01  0.4899E+02
    -16.437  0.8311E+01  0.5009E+02
    -16.306  0.3724E+01  0.5058E+02
    -16.174  0.8217E+01  0.5166E+02
    -16.042  0.6086E+01  0.5247E+02
    -15.910  0.1359E+02  0.5426E+02
    -15.778  0.1239E+02  0.5589E+02
    -15.647  0.1922E+01  0.5614E+02
    -15.515  0.3710E+01  0.5663E+02
    -15.383  0.3721E+01  0.5712E+02
    -15.251  0.9342E+01  0.5835E+02
    -15.119  0.2044E+02  0.6105E+02
    -14.988  0.6857E+01  0.6195E+02
    -14.856  0.1009E+02  0.6328E+02
    -14.724  0.1181E+02  0.6484E+02
    -14.592  0.6605E+01  0.6571E+02
    -14.460  0.1258E+02  0.6737E+02
    -14.329  0.8178E+01  0.6844E+02
    -14.197  0.3657E+00  0.6849E+02
    -14.065  0.4644E+01  0.6910E+02
    -13.933  0.7421E+01  0.7008E+02
    -13.801  0.1565E+02  0.7214E+02
    -13.670  0.2129E+02  0.7495E+02
    -13.538  0.1567E+01  0.7516E+02
    -13.406  0.2995E+01  0.7555E+02
    -13.274  0.1972E+00  0.7558E+02
    -13.142  0.1003E+02  0.7690E+02
    -13.011  0.1384E+02  0.7872E+02
    -12.879  0.1996E+02  0.8136E+02
    -12.747  0.3206E+01  0.8178E+02
    -12.615  0.2305E+01  0.8208E+02
    -12.483  0.1907E+02  0.8460E+02
    -12.352  0.1096E+02  0.8604E+02
    -12.220  0.4163E+01  0.8659E+02
    -12.088  0.2116E+01  0.8687E+02
    -11.956  0.1328E+02  0.8862E+02
    -11.824  0.2426E+01  0.8894E+02
    -11.693  0.1396E+02  0.9078E+02
    -11.561  0.1912E+02  0.9330E+02
    -11.429  0.1419E+02  0.9517E+02
    -11.297  0.7740E+01  0.9619E+02
    -11.165  0.6468E+01  0.9704E+02
    -11.034  0.8911E+01  0.9822E+02
    -10.902  0.9921E+01  0.9952E+02
    -10.770  0.1948E+02  0.1021E+03
    -10.638  0.1608E+01  0.1023E+03
    -10.506  0.1946E+02  0.1049E+03
    -10.375  0.5443E+01  0.1056E+03
    -10.243  0.2047E+02  0.1083E+03
    -10.111  0.2777E+02  0.1119E+03
     -9.979  0.2006E+02  0.1146E+03
     -9.847  0.1148E+02  0.1161E+03
     -9.716  0.1944E+02  0.1187E+03
     -9.584  0.2487E+02  0.1219E+03
     -9.452  0.2375E+02  0.1251E+03
     -9.320  0.2482E+02  0.1283E+03
     -9.188  0.2467E+02  0.1316E+03
     -9.057  0.2773E+02  0.1352E+03
     -8.925  0.2043E+02  0.1379E+03
     -8.793  0.2056E+02  0.1406E+03
     -8.661  0.1931E+02  0.1432E+03
     -8.529  0.2007E+02  0.1458E+03
     -8.398  0.1551E+02  0.1479E+03
     -8.266  0.1596E+02  0.1500E+03
     -8.134  0.1424E+02  0.1519E+03
     -8.002  0.2983E+02  0.1558E+03
     -7.870  0.1637E+02  0.1580E+03
     -7.739  0.1850E+02  0.1604E+03
     -7.607  0.6700E+01  0.1613E+03
     -7.475  0.3823E+01  0.1618E+03
     -7.343  0.1305E+02  0.1635E+03
     -7.211  0.3332E+02  0.1679E+03
     -7.080  0.1898E+02  0.1704E+03
     -6.948  0.2843E+01  0.1708E+03
     -6.816  0.2059E+02  0.1735E+03
     -6.684  0.1106E+02  0.1749E+03
     -6.552  0.1709E+02  0.1772E+03
     -6.421  0.7531E+01  0.1782E+03
     -6.289  0.1178E+02  0.1797E+03
     -6.157  0.1529E+02  0.1817E+03
     -6.025  0.1446E+02  0.1837E+03
     -5.893  0.1817E+02  0.1860E+03
     -5.762  0.9117E+01  0.1873E+03
     -5.630  0.1391E+02  0.1891E+03
     -5.498  0.4026E+01  0.1896E+03
     -5.366  0.7185E+01  0.1906E+03
     -5.234  0.9372E+01  0.1918E+03
     -5.103  0.1060E+02  0.1932E+03
     -4.971  0.1639E+02  0.1954E+03
     -4.839  0.1838E+02  0.1978E+03
     -4.707  0.3245E+01  0.1982E+03
     -4.575  0.1300E+00  0.1982E+03
     -4.444  0.6424E-05  0.1982E+03
     -4.312  0.1734E+01  0.1985E+03
     -4.180  0.1749E+02  0.2008E+03
     -4.048  0.6065E+01  0.2016E+03
     -3.916  0.2433E-02  0.2016E+03
     -3.785  0.3544E+00  0.2016E+03
     -3.653  0.2995E+01  0.2020E+03
     -3.521  0.1352E+00  0.2020E+03
     -3.389  0.4040E+01  0.2025E+03
     -3.257  0.1233E+02  0.2042E+03
     -3.126  0.1036E+02  0.2055E+03
     -2.994  0.3529E+01  0.2060E+03
     -2.862  0.2031E+01  0.2063E+03
     -2.730  0.9536E+01  0.2075E+03
     -2.598  0.2155E+00  0.2076E+03
     -2.467  0.3794E-01  0.2076E+03
     -2.335  0.3087E+01  0.2080E+03
     -2.203  0.2646E+01  0.2083E+03
     -2.071  0.9739E+00  0.2084E+03
     -1.940  0.3085E-04  0.2084E+03
     -1.808  0.3715E-08  0.2084E+03
     -1.676  0.7592E-01  0.2085E+03
     -1.544  0.9091E+01  0.2097E+03
     -1.412  0.1171E+02  0.2112E+03
     -1.281  0.4415E+01  0.2118E+03
     -1.149  0.3109E-03  0.2118E+03
     -1.017  0.7564E+00  0.2119E+03
     -0.885  0.9472E+01  0.2131E+03
     -0.753  0.2404E+02  0.2163E+03
     -0.622  0.1862E+02  0.2187E+03
     -0.490  0.5720E+01  0.2195E+03
     -0.358  0.4143E+00  0.2196E+03
     -0.226  0.3963E+01  0.2201E+03
     -0.094  0.1116E+02  0.2215E+03
      0.037  0.1066E+02  0.2230E+03
      0.169  0.1249E+01  0.2231E+03
      0.301  0.1497E+02  0.2251E+03
      0.433  0.8383E+01  0.2262E+03
      0.565  0.3301E+01  0.2266E+03
      0.696  0.9593E+01  0.2279E+03
      0.828  0.1817E+02  0.2303E+03
      0.960  0.6069E+01  0.2311E+03
      1.092  0.1052E+02  0.2325E+03
      1.224  0.1574E+02  0.2346E+03
      1.355  0.7569E+01  0.2356E+03
      1.487  0.1490E+02  0.2375E+03
      1.619  0.2312E+02  0.2406E+03
      1.751  0.1495E+02  0.2425E+03
      1.883  0.2814E+02  0.2462E+03
      2.014  0.8769E+01  0.2474E+03
      2.146  0.1537E+02  0.2494E+03
      2.278  0.2575E+02  0.2528E+03
      2.410  0.2924E+02  0.2567E+03
      2.542  0.8518E+01  0.2578E+03
      2.673  0.5950E+01  0.2586E+03
      2.805  0.8684E+01  0.2597E+03
      2.937  0.5664E+01  0.2605E+03
      3.069  0.9053E+01  0.2617E+03
      3.201  0.2627E+01  0.2620E+03
      3.332  0.4961E+01  0.2627E+03
      3.464  0.4736E-01  0.2627E+03
      3.596  0.2776E+01  0.2630E+03
      3.728  0.3965E+01  0.2636E+03
      3.860  0.2408E-02  0.2636E+03
      3.991  0.6252E-06  0.2636E+03
      4.123  0.2955E+00  0.2636E+03
      4.255  0.3047E+01  0.2640E+03
      4.387  0.2981E-01  0.2640E+03
      4.519  0.1788E-08  0.2640E+03
      4.650  0.0000E+00  0.2640E+03
      4.782  0.0000E+00  0.2640E+03
      4.914  0.0000E+00  0.2640E+03
      5.046  0.0000E+00  0.2640E+03
      5.178  0.0000E+00  0.2640E+03
      5.309  0.0000E+00  0.2640E+03
      5.441  0.0000E+00  0.2640E+03
      5.573  0.0000E+00  0.2640E+03
      5.705  0.0000E+00  0.2640E+03
      5.837  0.0000E+00  0.2640E+03
      5.968  0.0000E+00  0.2640E+03
