 running on   48 total cores
 distrk:  each k-point on   48 cores,    1 groups
 distr:  one band on    8 cores,    6 groups
 using from now: INCAR     
 vasp.5.4.4.18Apr17-6-g9f103f2a35 (build Aug 13 2022 23:40:43) complex          
  
 POSCAR found type information on POSCAR  C  O 
 POSCAR found :  2 types and      51 ions
 scaLAPACK will be used

 ----------------------------------------------------------------------------- 
|                                                                             |
|  ADVICE TO THIS USER RUNNING 'VASP/VAMP'   (HEAR YOUR MASTER'S VOICE ...):  |
|                                                                             |
|      You have a (more or less) 'large supercell' and for larger cells       |
|      it might be more efficient to use real space projection opertators     |
|      So try LREAL= Auto  in the INCAR   file.                               |
|      Mind:          For very  accurate calculation you might also keep the  |
|      reciprocal projection scheme          (i.e. LREAL=.FALSE.)             |
|                                                                             |
 ----------------------------------------------------------------------------- 

 LDA part: xc-table for Pade appr. of Perdew
 POSCAR found type information on POSCAR  C  O 
 POSCAR found :  2 types and      51 ions
 found WAVECAR, reading the header
  number of k-points has changed, file:     3 present:     5
  trying to continue reading WAVECAR, but it might fail
 POSCAR, INCAR and KPOINTS ok, starting setup
 FFT: planning ...
 reading WAVECAR
 the WAVECAR file was read successfully
 charge-density read from file: 1.00000000000000                        
 entering main loop
       N       E                     dE             d eps       ncg     rms          rms(c)
DAV:   1    -0.453249048400E+03   -0.45325E+03   -0.28417E+02  1356   0.216E+01    0.501E-01
RMM:   2    -0.454237447927E+03   -0.98840E+00   -0.99093E+00  1422   0.567E+00    0.222E-01
RMM:   3    -0.454289604167E+03   -0.52156E-01   -0.58577E-01  1571   0.110E+00    0.157E-01
RMM:   4    -0.454293471750E+03   -0.38676E-02   -0.40618E-02  1583   0.312E-01    0.155E-01
RMM:   5    -0.454293575606E+03   -0.10386E-03   -0.32207E-03  1508   0.917E-02    0.611E-02
RMM:   6    -0.454293609970E+03   -0.34364E-04   -0.52467E-04  1525   0.477E-02    0.186E-02
RMM:   7    -0.454293615946E+03   -0.59762E-05   -0.21339E-05  1031   0.108E-02
   1 F= -.45429362E+03 E0= -.45429357E+03  d E =-.917645E-04
