<?xml version="1.0" encoding="ISO-8859-1"?>
<modeling>
 <generator>
  <i name="program" type="string">vasp </i>
  <i name="version" type="string">5.4.4.18Apr17-6-g9f103f2a35  </i>
  <i name="subversion" type="string">(build Aug 13 2022 23:40:43) complex            parallel </i>
  <i name="platform" type="string">LinuxIFC </i>
  <i name="date" type="string">2024 11 10 </i>
  <i name="time" type="string">04:19:34 </i>
 </generator>
 <incar>
  <i type="int" name="ISTART">     1</i>
  <i type="string" name="PREC">accurate</i>
  <i type="string" name="ALGO"> F          N:DAV,fine,slow</i>
  <i type="logical" name="ADDGRID"> T  </i>
  <i type="int" name="ISPIN">     1</i>
  <i type="int" name="ICHARG">     1</i>
  <i type="int" name="NELM">   300</i>
  <i type="int" name="IBRION">    -1</i>
  <i name="EDIFF">      0.00001000</i>
  <i name="EDIFFG">     -0.00100000</i>
  <i type="int" name="NSW">     1</i>
  <i type="int" name="ISIF">     2</i>
  <i name="ENCUT">    400.00000000</i>
  <i type="logical" name="LREAL"> F  </i>
  <i type="int" name="ISMEAR">     0</i>
  <i name="SIGMA">      0.05000000</i>
  <i type="logical" name="LWAVE"> F  </i>
  <i type="logical" name="LCHARG"> F  </i>
  <v type="int" name="KPOINT_BSE">    -1     0     0     0</v>
  <i type="int" name="NELM">   300</i>
 </incar>
 <structure name="primitive_cell" >
  <crystal>
   <varray name="basis" >
    <v>      12.30000019       0.00000000       0.00000000 </v>
    <v>       6.15000080      10.65211222       0.00000000 </v>
    <v>       0.00000000       0.00000000      20.00000000 </v>
   </varray>
   <i name="volume">   2620.41964732 </i>
   <varray name="rec_basis" >
    <v>       0.08130081      -0.04693905       0.00000000 </v>
    <v>       0.00000000       0.09387809       0.00000000 </v>
    <v>       0.00000000       0.00000000       0.05000000 </v>
   </varray>
  </crystal>
  <varray name="positions" >
   <v>       0.00000000       0.00000000       0.41799748 </v>
   <v>       0.06666667       0.06666660       0.41800609 </v>
   <v>      -0.13333333       0.06666660       0.41800609 </v>
   <v>       0.06666667      -0.13333340       0.41800609 </v>
   <v>      -0.20000000       0.20000000       0.41799748 </v>
   <v>       0.20000000      -0.20000000       0.41799748 </v>
   <v>       0.20000000       0.00000000       0.41799748 </v>
   <v>      -0.20000000       0.00000000       0.41799748 </v>
   <v>       0.00000000       0.20000000       0.41799748 </v>
   <v>       0.00000000      -0.20000000       0.41799748 </v>
   <v>      -0.13333333       0.26666660       0.41800609 </v>
   <v>       0.26666667      -0.13333340       0.41800609 </v>
   <v>      -0.13333333      -0.13333340       0.41800609 </v>
   <v>       0.06666667       0.26666660       0.41800609 </v>
   <v>      -0.33333333       0.26666660       0.41800609 </v>
   <v>       0.26666667       0.06666660       0.41800609 </v>
   <v>      -0.33333333       0.06666660       0.41800609 </v>
   <v>       0.26666667      -0.33333340       0.41800609 </v>
   <v>       0.06666667      -0.33333340       0.41800609 </v>
   <v>      -0.40000000       0.20000000       0.41799748 </v>
   <v>       0.40000000      -0.20000000       0.41799748 </v>
   <v>      -0.20000000       0.40000000       0.41799748 </v>
   <v>       0.20000000      -0.40000000       0.41799748 </v>
   <v>       0.20000000       0.20000000       0.41799748 </v>
   <v>      -0.20000000      -0.20000000       0.41799748 </v>
   <v>      -0.40000000       0.40000000       0.41799748 </v>
   <v>       0.40000000      -0.40000000       0.41799748 </v>
   <v>       0.40000000       0.00000000       0.41799748 </v>
   <v>      -0.40000000       0.00000000       0.41799748 </v>
   <v>       0.00000000       0.40000000       0.41799748 </v>
   <v>       0.00000000      -0.40000000       0.41799748 </v>
   <v>      -0.13333333       0.46666660       0.41800609 </v>
   <v>      -0.33333333       0.46666660       0.41800609 </v>
   <v>       0.46666667      -0.13333340       0.41800609 </v>
   <v>       0.46666667      -0.33333340       0.41800609 </v>
   <v>      -0.33333333      -0.13333340       0.41800609 </v>
   <v>      -0.13333333      -0.33333340       0.41800609 </v>
   <v>       0.26666667       0.26666660       0.41800609 </v>
   <v>       0.26666667       0.46666660       0.41800609 </v>
   <v>       0.46666667       0.26747961       0.41800609 </v>
   <v>       0.06666667       0.46666660       0.41800609 </v>
   <v>       0.46666667       0.46666660       0.41800609 </v>
   <v>       0.46666667       0.06666660       0.41800609 </v>
   <v>       0.40000000       0.40000000       0.41799748 </v>
   <v>      -0.40000000      -0.40000000       0.41799748 </v>
   <v>       0.40000000       0.20000000       0.41799748 </v>
   <v>      -0.40000000      -0.20000000       0.41799748 </v>
   <v>       0.20000000       0.40000000       0.41799748 </v>
   <v>      -0.20000000      -0.40000000       0.41799748 </v>
   <v>       0.40000000       0.40000000       0.46800609 </v>
   <v>      -0.33333333      -0.33333340       0.41800609 </v>
  </varray>
 </structure>
 <varray name="primitive_index" >
  <v type="int" >        1 </v>
  <v type="int" >       26 </v>
  <v type="int" >       30 </v>
  <v type="int" >       46 </v>
  <v type="int" >       10 </v>
  <v type="int" >       22 </v>
  <v type="int" >        2 </v>
  <v type="int" >        5 </v>
  <v type="int" >        6 </v>
  <v type="int" >       21 </v>
  <v type="int" >       35 </v>
  <v type="int" >       47 </v>
  <v type="int" >       50 </v>
  <v type="int" >       31 </v>
  <v type="int" >       34 </v>
  <v type="int" >       27 </v>
  <v type="int" >       29 </v>
  <v type="int" >       42 </v>
  <v type="int" >       41 </v>
  <v type="int" >        9 </v>
  <v type="int" >       23 </v>
  <v type="int" >       15 </v>
  <v type="int" >       17 </v>
  <v type="int" >        7 </v>
  <v type="int" >       25 </v>
  <v type="int" >       14 </v>
  <v type="int" >       18 </v>
  <v type="int" >        3 </v>
  <v type="int" >        4 </v>
  <v type="int" >       11 </v>
  <v type="int" >       16 </v>
  <v type="int" >       40 </v>
  <v type="int" >       39 </v>
  <v type="int" >       48 </v>
  <v type="int" >       43 </v>
  <v type="int" >       49 </v>
  <v type="int" >       45 </v>
  <v type="int" >       32 </v>
  <v type="int" >       37 </v>
  <v type="int" >       33 </v>
  <v type="int" >       36 </v>
  <v type="int" >       38 </v>
  <v type="int" >       28 </v>
  <v type="int" >       13 </v>
  <v type="int" >       19 </v>
  <v type="int" >        8 </v>
  <v type="int" >       24 </v>
  <v type="int" >       12 </v>
  <v type="int" >       20 </v>
  <v type="int" >       51 </v>
  <v type="int" >       44 </v>
 </varray>
 <kpoints>
  <generation param="Gamma">
   <v type="int" name="divisions">       3        3        1 </v>
   <v name="usershift">      0.00000000       0.00000000       0.00000000 </v>
   <v name="genvec1">      0.33333333      -0.00000000       0.00000000 </v>
   <v name="genvec2">      0.00000000       0.33333333       0.00000000 </v>
   <v name="genvec3">      0.00000000       0.00000000       1.00000000 </v>
   <v name="shift">      0.00000000       0.00000000       0.00000000 </v>
  </generation>
  <varray name="kpointlist" >
   <v>       0.00000000       0.00000000       0.00000000 </v>
   <v>       0.33333333       0.00000000       0.00000000 </v>
   <v>       0.00000000       0.33333333       0.00000000 </v>
   <v>       0.33333333       0.33333333       0.00000000 </v>
   <v>      -0.33333333       0.33333333       0.00000000 </v>
  </varray>
  <varray name="weights" >
   <v>       0.11111111 </v>
   <v>       0.22222222 </v>
   <v>       0.22222222 </v>
   <v>       0.22222222 </v>
   <v>       0.22222222 </v>
  </varray>
 </kpoints>
 <parameters>
  <separator name="general" >
   <i type="string" name="SYSTEM"></i>
   <i type="logical" name="LCOMPAT"> F  </i>
  </separator>
  <separator name="electronic" >
   <i type="string" name="PREC">accura</i>
   <i name="ENMAX">    400.00000000</i>
   <i name="ENAUG">    644.87300000</i>
   <i name="EDIFF">      0.00001000</i>
   <i type="int" name="IALGO">    68</i>
   <i type="int" name="IWAVPR">    10</i>
   <i type="int" name="NBANDS">   132</i>
   <i name="NELECT">    206.00000000</i>
   <i type="int" name="TURBO">     0</i>
   <i type="int" name="IRESTART">     0</i>
   <i type="int" name="NREBOOT">     0</i>
   <i type="int" name="NMIN">     0</i>
   <i name="EREF">      0.00000000</i>
   <separator name="electronic smearing" >
    <i type="int" name="ISMEAR">     0</i>
    <i name="SIGMA">      0.05000000</i>
    <i name="KSPACING">      0.50000000</i>
    <i type="logical" name="KGAMMA"> T  </i>
   </separator>
   <separator name="electronic projectors" >
    <i type="logical" name="LREAL"> F  </i>
    <v name="ROPT">      0.00000000      0.00000000</v>
    <i type="int" name="LMAXPAW">  -100</i>
    <i type="int" name="LMAXMIX">     2</i>
    <i type="logical" name="NLSPLINE"> F  </i>
   </separator>
   <separator name="electronic startup" >
    <i type="int" name="ISTART">     1</i>
    <i type="int" name="ICHARG">     1</i>
    <i type="int" name="INIWAV">     1</i>
   </separator>
   <separator name="electronic spin" >
    <i type="int" name="ISPIN">     1</i>
    <i type="logical" name="LNONCOLLINEAR"> F  </i>
    <v name="MAGMOM">      1.00000000      1.00000000      1.00000000      1.00000000      1.00000000      1.00000000      1.00000000      1.00000000      1.00000000      1.00000000      1.00000000      1.00000000      1.00000000      1.00000000      1.00000000      1.00000000      1.00000000      1.00000000      1.00000000      1.00000000
      1.00000000      1.00000000      1.00000000      1.00000000      1.00000000      1.00000000      1.00000000      1.00000000      1.00000000      1.00000000      1.00000000      1.00000000      1.00000000      1.00000000      1.00000000      1.00000000      1.00000000      1.00000000      1.00000000      1.00000000
      1.00000000      1.00000000      1.00000000      1.00000000      1.00000000      1.00000000      1.00000000      1.00000000      1.00000000      1.00000000      1.00000000</v>
    <i name="NUPDOWN">     -1.00000000</i>
    <i type="logical" name="LSORBIT"> F  </i>
    <v name="SAXIS">      0.00000000      0.00000000      1.00000000</v>
    <i type="logical" name="LSPIRAL"> F  </i>
    <v name="QSPIRAL">      0.00000000      0.00000000      0.00000000</v>
    <i type="logical" name="LZEROZ"> F  </i>
   </separator>
   <separator name="electronic exchange-correlation" >
    <i type="logical" name="LASPH"> F  </i>
    <i type="logical" name="LMETAGGA"> F  </i>
   </separator>
   <separator name="electronic convergence" >
    <i type="int" name="NELM">   300</i>
    <i type="int" name="NELMDL">     0</i>
    <i type="int" name="NELMIN">     2</i>
    <i name="ENINI">    400.00000000</i>
    <separator name="electronic convergence detail" >
     <i type="logical" name="LDIAG"> T  </i>
     <i type="logical" name="LSUBROT"> F  </i>
     <i name="WEIMIN">      0.00000000</i>
     <i name="EBREAK">      0.00000002</i>
     <i name="DEPER">      0.30000000</i>
     <i type="int" name="NRMM">     4</i>
     <i name="TIME">      0.40000000</i>
    </separator>
   </separator>
   <separator name="electronic mixer" >
    <i name="AMIX">      0.40000000</i>
    <i name="BMIX">      1.00000000</i>
    <i name="AMIN">      0.10000000</i>
    <i name="AMIX_MAG">      1.60000000</i>
    <i name="BMIX_MAG">      1.00000000</i>
    <separator name="electronic mixer details" >
     <i type="int" name="IMIX">     4</i>
     <i type="logical" name="MIXFIRST"> F  </i>
     <i type="int" name="MAXMIX">   -45</i>
     <i name="WC">    100.00000000</i>
     <i type="int" name="INIMIX">     1</i>
     <i type="int" name="MIXPRE">     1</i>
     <i type="int" name="MREMOVE">     5</i>
    </separator>
   </separator>
   <separator name="electronic dipolcorrection" >
    <i type="logical" name="LDIPOL"> F  </i>
    <i type="logical" name="LMONO"> F  </i>
    <i type="int" name="IDIPOL">     0</i>
    <i name="EPSILON">      1.00000000</i>
    <v name="DIPOL">   -100.00000000   -100.00000000   -100.00000000</v>
    <i name="EFIELD">      0.00000000</i>
   </separator>
  </separator>
  <separator name="grids" >
   <i type="int" name="NGX">    80</i>
   <i type="int" name="NGY">    80</i>
   <i type="int" name="NGZ">   140</i>
   <i type="int" name="NGXF">   160</i>
   <i type="int" name="NGYF">   160</i>
   <i type="int" name="NGZF">   280</i>
   <i type="logical" name="ADDGRID"> T  </i>
  </separator>
  <separator name="ionic" >
   <i type="int" name="NSW">     1</i>
   <i type="int" name="IBRION">    -1</i>
   <i type="int" name="MDALGO">     0</i>
   <i type="int" name="ISIF">     2</i>
   <i name="PSTRESS">      0.00000000</i>
   <i name="EDIFFG">     -0.00100000</i>
   <i type="int" name="NFREE">     0</i>
   <i name="POTIM">      0.50000000</i>
   <i name="SMASS">     -3.00000000</i>
   <i name="SCALEE">      1.00000000</i>
  </separator>
  <separator name="ionic md" >
   <i name="TEBEG">      0.00010000</i>
   <i name="TEEND">      0.00010000</i>
   <i type="int" name="NBLOCK">     1</i>
   <i type="int" name="KBLOCK">     1</i>
   <i type="int" name="NPACO">   256</i>
   <i name="APACO">     16.00000000</i>
  </separator>
  <separator name="symmetry" >
   <i type="int" name="ISYM">     2</i>
   <i name="SYMPREC">      0.00001000</i>
  </separator>
  <separator name="dos" >
   <i type="int" name="LORBIT">     0</i>
   <v name="RWIGS">     -1.00000000     -1.00000000</v>
   <i type="int" name="NEDOS">   301</i>
   <i name="EMIN">     10.00000000</i>
   <i name="EMAX">    -10.00000000</i>
   <i name="EFERMI">      0.00000000</i>
  </separator>
  <separator name="writing" >
   <i type="int" name="NWRITE">     2</i>
   <i type="logical" name="LWAVE"> F  </i>
   <i type="logical" name="LDOWNSAMPLE"> F  </i>
   <i type="logical" name="LCHARG"> F  </i>
   <i type="logical" name="LPARD"> F  </i>
   <i type="logical" name="LVTOT"> F  </i>
   <i type="logical" name="LVHAR"> F  </i>
   <i type="logical" name="LELF"> F  </i>
   <i type="logical" name="LOPTICS"> F  </i>
   <v name="STM">      0.00000000      0.00000000      0.00000000      0.00000000      0.00000000      0.00000000      0.00000000</v>
  </separator>
  <separator name="performance" >
   <i type="int" name="NPAR">     6</i>
   <i type="int" name="NSIM">     4</i>
   <i type="int" name="NBLK">    -1</i>
   <i type="logical" name="LPLANE"> T  </i>
   <i type="logical" name="LSCALAPACK"> T  </i>
   <i type="logical" name="LSCAAWARE"> F  </i>
   <i type="logical" name="LSCALU"> F  </i>
   <i type="logical" name="LASYNC"> F  </i>
   <i type="logical" name="LORBITALREAL"> F  </i>
  </separator>
  <separator name="miscellaneous" >
   <i type="int" name="IDIOT">     3</i>
   <i type="int" name="ISPECIAL">     0</i>
   <i type="logical" name="LMUSIC"> F  </i>
   <v name="POMASS">     12.01100000     16.00000000</v>
   <v name="DARWINR">      0.00000000      0.00000000</v>
   <v name="DARWINV">      1.00000000      1.00000000</v>
   <i type="logical" name="LCORR"> T  </i>
  </separator>
  <i type="logical" name="GGA_COMPAT"> T  </i>
  <i type="logical" name="LBERRY"> F  </i>
  <i type="int" name="ICORELEVEL">     0</i>
  <i type="logical" name="LDAU"> F  </i>
  <i type="int" name="I_CONSTRAINED_M">     0</i>
  <separator name="electronic exchange-correlation" >
   <i type="string" name="GGA">--</i>
   <i type="int" name="VOSKOWN">     0</i>
   <i type="logical" name="LHFCALC"> F  </i>
   <i type="string" name="PRECFOCK"></i>
   <i type="logical" name="LSYMGRAD"> F  </i>
   <i type="logical" name="LHFONE"> F  </i>
   <i type="logical" name="LRHFCALC"> F  </i>
   <i type="logical" name="LTHOMAS"> F  </i>
   <i type="logical" name="LMODELHF"> F  </i>
   <i name="ENCUT4O">     -1.00000000</i>
   <i type="int" name="EXXOEP">     0</i>
   <i type="int" name="FOURORBIT">     0</i>
   <i name="AEXX">      0.00000000</i>
   <i name="HFALPHA">      0.00000000</i>
   <i name="MCALPHA">      0.00000000</i>
   <i name="ALDAX">      1.00000000</i>
   <i name="AGGAX">      1.00000000</i>
   <i name="ALDAC">      1.00000000</i>
   <i name="AGGAC">      1.00000000</i>
   <i type="int" name="NKREDX">     1</i>
   <i type="int" name="NKREDY">     1</i>
   <i type="int" name="NKREDZ">     1</i>
   <i type="logical" name="SHIFTRED"> F  </i>
   <i type="logical" name="ODDONLY"> F  </i>
   <i type="logical" name="EVENONLY"> F  </i>
   <i type="int" name="LMAXFOCK">     0</i>
   <i type="int" name="NMAXFOCKAE">     0</i>
   <i type="logical" name="LFOCKAEDFT"> F  </i>
   <i name="HFSCREEN">      0.00000000</i>
   <i name="HFSCREENC">      0.00000000</i>
   <i type="int" name="NBANDSGWLOW">     0</i>
  </separator>
  <separator name="vdW DFT" >
   <i type="logical" name="LUSE_VDW"> F  </i>
   <i name="Zab_VDW">     -0.84910000</i>
   <i name="PARAM1">      0.12340000</i>
   <i name="PARAM2">      1.00000000</i>
   <i name="PARAM3">      0.00000000</i>
  </separator>
  <separator name="model GW" >
   <i type="int" name="MODEL_GW">     0</i>
   <i name="MODEL_EPS0">     30.82846644</i>
   <i name="MODEL_ALPHA">      1.00000000</i>
  </separator>
  <separator name="linear response parameters" >
   <i type="logical" name="LEPSILON"> F  </i>
   <i type="logical" name="LRPA"> F  </i>
   <i type="logical" name="LNABLA"> F  </i>
   <i type="logical" name="LVEL"> F  </i>
   <i type="int" name="KINTER">     0</i>
   <i name="CSHIFT">      0.10000000</i>
   <i name="OMEGAMAX">     -1.00000000</i>
   <i name="DEG_THRESHOLD">      0.00200000</i>
   <i name="RTIME">     -0.10000000</i>
   <i name="WPLASMAI">      0.00000000</i>
   <v name="DFIELD">      0.00000000      0.00000000      0.00000000</v>
   <v name="WPLASMA">      0.00000000      0.00000000      0.00000000      0.00000000      0.00000000      0.00000000      0.00000000      0.00000000      0.00000000</v>
  </separator>
  <separator name="orbital magnetization" >
   <i type="logical" name="NUCIND"> F  </i>
   <v name="MAGPOS">      0.00000000      0.00000000      0.00000000</v>
   <i type="logical" name="LNICSALL"> T  </i>
   <i type="logical" name="ORBITALMAG"> F  </i>
   <i type="logical" name="LMAGBLOCH"> F  </i>
   <i type="logical" name="LCHIMAG"> F  </i>
   <i type="logical" name="LGAUGE"> T  </i>
   <i type="int" name="MAGATOM">     0</i>
   <v name="MAGDIPOL">      0.00000000      0.00000000      0.00000000</v>
   <v name="AVECCONST">      0.00000000      0.00000000      0.00000000</v>
  </separator>
  <separator name="response functions" >
   <i type="logical" name="LADDER"> F  </i>
   <i type="logical" name="LRPAFORCE"> F  </i>
   <i type="logical" name="LFXC"> F  </i>
   <i type="logical" name="LHARTREE"> T  </i>
   <i type="int" name="IBSE">     0</i>
   <v type="int" name="KPOINT">    -1     0     0     0</v>
   <i type="logical" name="LTCTE"> F  </i>
   <i type="logical" name="LTETE"> F  </i>
   <i type="logical" name="LTRIPLET"> F  </i>
   <i type="logical" name="LFXCEPS"> F  </i>
   <i type="logical" name="LFXHEG"> F  </i>
   <i type="int" name="NATURALO">     2</i>
   <i type="logical" name="L2ORDER"> F  </i>
   <i type="logical" name="LMP2LT"> F  </i>
   <i type="logical" name="LUSEW"> F  </i>
   <i name="ENCUTGW">     -2.00000000</i>
   <i name="ENCUTGWSOFT">     -2.00000000</i>
   <i name="ENCUTLF">     -1.00000000</i>
   <i type="int" name="LMAXMP2">    -1</i>
   <i name="SCISSOR">      0.00000000</i>
   <i type="int" name="NOMEGA">     0</i>
   <i type="int" name="NOMEGAR">     0</i>
   <i type="int" name="NBANDSGW">    -1</i>
   <i type="int" name="NBANDSO">    -1</i>
   <i type="int" name="NBANDSV">    -1</i>
   <i type="int" name="NELM">   300</i>
   <i type="int" name="NELMHF">     1</i>
   <i type="int" name="DIM">     3</i>
   <i type="int" name="ANTIRES">     0</i>
   <i name="OMEGAMAX">    -30.00000000</i>
   <i name="OMEGAMIN">    -30.00000000</i>
   <i name="OMEGATL">   -200.00000000</i>
   <i type="int" name="OMEGAGRID">   140</i>
   <i name="CSHIFT">     -0.10000000</i>
   <i type="logical" name="SELFENERGY"> F  </i>
   <i type="logical" name="LSPECTRAL"> F  </i>
   <i type="logical" name="LSPECTRALGW"> F  </i>
   <i type="logical" name="LSINGLES"> F  </i>
   <i type="logical" name="LFERMIGW"> F  </i>
   <i type="logical" name="ODDONLYGW"> F  </i>
   <i type="logical" name="EVENONLYGW"> F  </i>
   <i type="int" name="NKREDLFX">     1</i>
   <i type="int" name="NKREDLFY">     1</i>
   <i type="int" name="NKREDLFZ">     1</i>
   <i type="int" name="MAXMEM">  2800</i>
   <i type="int" name="TELESCOPE">     0</i>
   <i type="int" name="TAUPAR">     1</i>
   <i type="int" name="OMEGAPAR">    -1</i>
   <i name="LAMBDA">      1.00000000</i>
  </separator>
  <separator name="External order field" >
   <i name="OFIELD_KAPPA">      0.00000000</i>
   <v name="OFIELD_K">      0.00000000      0.00000000      0.00000000</v>
   <i name="OFIELD_Q6_NEAR">      0.00000000</i>
   <i name="OFIELD_Q6_FAR">      0.00000000</i>
   <i name="OFIELD_A">      0.00000000</i>
  </separator>
 </parameters>
 <atominfo>
  <atoms>      51 </atoms>
  <types>       2 </types>
  <array name="atoms" >
   <dimension dim="1">ion</dimension>
   <field type="string">element</field>
   <field type="int">atomtype</field>
   <set>
    <rc><c>C </c><c>   1</c></rc>
    <rc><c>C </c><c>   1</c></rc>
    <rc><c>C </c><c>   1</c></rc>
    <rc><c>C </c><c>   1</c></rc>
    <rc><c>C </c><c>   1</c></rc>
    <rc><c>C </c><c>   1</c></rc>
    <rc><c>C </c><c>   1</c></rc>
    <rc><c>C </c><c>   1</c></rc>
    <rc><c>C </c><c>   1</c></rc>
    <rc><c>C </c><c>   1</c></rc>
    <rc><c>C </c><c>   1</c></rc>
    <rc><c>C </c><c>   1</c></rc>
    <rc><c>C </c><c>   1</c></rc>
    <rc><c>C </c><c>   1</c></rc>
    <rc><c>C </c><c>   1</c></rc>
    <rc><c>C </c><c>   1</c></rc>
    <rc><c>C </c><c>   1</c></rc>
    <rc><c>C </c><c>   1</c></rc>
    <rc><c>C </c><c>   1</c></rc>
    <rc><c>C </c><c>   1</c></rc>
    <rc><c>C </c><c>   1</c></rc>
    <rc><c>C </c><c>   1</c></rc>
    <rc><c>C </c><c>   1</c></rc>
    <rc><c>C </c><c>   1</c></rc>
    <rc><c>C </c><c>   1</c></rc>
    <rc><c>C </c><c>   1</c></rc>
    <rc><c>C </c><c>   1</c></rc>
    <rc><c>C </c><c>   1</c></rc>
    <rc><c>C </c><c>   1</c></rc>
    <rc><c>C </c><c>   1</c></rc>
    <rc><c>C </c><c>   1</c></rc>
    <rc><c>C </c><c>   1</c></rc>
    <rc><c>C </c><c>   1</c></rc>
    <rc><c>C </c><c>   1</c></rc>
    <rc><c>C </c><c>   1</c></rc>
    <rc><c>C </c><c>   1</c></rc>
    <rc><c>C </c><c>   1</c></rc>
    <rc><c>C </c><c>   1</c></rc>
    <rc><c>C </c><c>   1</c></rc>
    <rc><c>C </c><c>   1</c></rc>
    <rc><c>C </c><c>   1</c></rc>
    <rc><c>C </c><c>   1</c></rc>
    <rc><c>C </c><c>   1</c></rc>
    <rc><c>C </c><c>   1</c></rc>
    <rc><c>C </c><c>   1</c></rc>
    <rc><c>C </c><c>   1</c></rc>
    <rc><c>C </c><c>   1</c></rc>
    <rc><c>C </c><c>   1</c></rc>
    <rc><c>C </c><c>   1</c></rc>
    <rc><c>C </c><c>   1</c></rc>
    <rc><c>O </c><c>   2</c></rc>
   </set>
  </array>
  <array name="atomtypes" >
   <dimension dim="1">type</dimension>
   <field type="int">atomspertype</field>
   <field type="string">element</field>
   <field>mass</field>
   <field>valence</field>
   <field type="string">pseudopotential</field>
   <set>
    <rc><c>  50</c><c>C </c><c>     12.01100000</c><c>      4.00000000</c><c>  PAW_PBE C 08Apr2002                   </c></rc>
    <rc><c>   1</c><c>O </c><c>     16.00000000</c><c>      6.00000000</c><c>  PAW_PBE O 08Apr2002                   </c></rc>
   </set>
  </array>
 </atominfo>
 <structure name="initialpos" >
  <crystal>
   <varray name="basis" >
    <v>      12.30000019       0.00000000       0.00000000 </v>
    <v>       6.15000080      10.65211222       0.00000000 </v>
    <v>       0.00000000       0.00000000      20.00000000 </v>
   </varray>
   <i name="volume">   2620.41964732 </i>
   <varray name="rec_basis" >
    <v>       0.08130081      -0.04693905       0.00000000 </v>
    <v>       0.00000000       0.09387809       0.00000000 </v>
    <v>       0.00000000       0.00000000       0.05000000 </v>
   </varray>
  </crystal>
  <varray name="positions" >
   <v>       0.00000000       0.00000000       0.41799748 </v>
   <v>       0.20000000       0.00000000       0.41799748 </v>
   <v>       0.40000000       0.00000000       0.41799748 </v>
   <v>       0.60000000       0.00000000       0.41799748 </v>
   <v>       0.80000000       0.00000000       0.41799748 </v>
   <v>       0.00000000       0.20000000       0.41799748 </v>
   <v>       0.20000000       0.20000000       0.41799748 </v>
   <v>       0.40000000       0.20000000       0.41799748 </v>
   <v>       0.60000000       0.20000000       0.41799748 </v>
   <v>       0.80000000       0.20000000       0.41799748 </v>
   <v>       0.00000000       0.40000000       0.41799748 </v>
   <v>       0.20000000       0.40000000       0.41799748 </v>
   <v>       0.40000000       0.40000000       0.41799748 </v>
   <v>       0.60000000       0.40000000       0.41799748 </v>
   <v>       0.80000000       0.40000000       0.41799748 </v>
   <v>       0.00000000       0.60000000       0.41799748 </v>
   <v>       0.20000000       0.60000000       0.41799748 </v>
   <v>       0.40000000       0.60000000       0.41799748 </v>
   <v>       0.60000000       0.60000000       0.41799748 </v>
   <v>       0.80000000       0.60000000       0.41799748 </v>
   <v>       0.00000000       0.80000000       0.41799748 </v>
   <v>       0.20000000       0.80000000       0.41799748 </v>
   <v>       0.40000000       0.80000000       0.41799748 </v>
   <v>       0.60000000       0.80000000       0.41799748 </v>
   <v>       0.80000000       0.80000000       0.41799748 </v>
   <v>       0.06666667       0.06666660       0.41800609 </v>
   <v>       0.26666667       0.06666660       0.41800609 </v>
   <v>       0.46666667       0.06666660       0.41800609 </v>
   <v>       0.66666667       0.06666660       0.41800609 </v>
   <v>       0.86666667       0.06666660       0.41800609 </v>
   <v>       0.06666667       0.26666660       0.41800609 </v>
   <v>       0.26666667       0.26666660       0.41800609 </v>
   <v>       0.46666667       0.26747961       0.41800609 </v>
   <v>       0.66666667       0.26666660       0.41800609 </v>
   <v>       0.86666667       0.26666660       0.41800609 </v>
   <v>       0.06666667       0.46666660       0.41800609 </v>
   <v>       0.26666667       0.46666660       0.41800609 </v>
   <v>       0.46666667       0.46666660       0.41800609 </v>
   <v>       0.66666667       0.46666660       0.41800609 </v>
   <v>       0.86666667       0.46666660       0.41800609 </v>
   <v>       0.06666667       0.66666660       0.41800609 </v>
   <v>       0.26666667       0.66666660       0.41800609 </v>
   <v>       0.46666667       0.66666660       0.41800609 </v>
   <v>       0.66666667       0.66666660       0.41800609 </v>
   <v>       0.86666667       0.66666660       0.41800609 </v>
   <v>       0.06666667       0.86666660       0.41800609 </v>
   <v>       0.26666667       0.86666660       0.41800609 </v>
   <v>       0.46666667       0.86666660       0.41800609 </v>
   <v>       0.66666667       0.86666660       0.41800609 </v>
   <v>       0.86666667       0.86666660       0.41800609 </v>
   <v>       0.40000000       0.40000000       0.46800609 </v>
  </varray>
  <varray name="velocities" >
   <v>       0.00000000       0.00000000       0.00000000 </v>
   <v>       0.00000000       0.00000000       0.00000000 </v>
   <v>       0.00000000       0.00000000       0.00000000 </v>
   <v>       0.00000000       0.00000000       0.00000000 </v>
   <v>       0.00000000       0.00000000       0.00000000 </v>
   <v>       0.00000000       0.00000000       0.00000000 </v>
   <v>       0.00000000       0.00000000       0.00000000 </v>
   <v>       0.00000000       0.00000000       0.00000000 </v>
   <v>       0.00000000       0.00000000       0.00000000 </v>
   <v>       0.00000000       0.00000000       0.00000000 </v>
   <v>       0.00000000       0.00000000       0.00000000 </v>
   <v>       0.00000000       0.00000000       0.00000000 </v>
   <v>       0.00000000       0.00000000       0.00000000 </v>
   <v>       0.00000000       0.00000000       0.00000000 </v>
   <v>       0.00000000       0.00000000       0.00000000 </v>
   <v>       0.00000000       0.00000000       0.00000000 </v>
   <v>       0.00000000       0.00000000       0.00000000 </v>
   <v>       0.00000000       0.00000000       0.00000000 </v>
   <v>       0.00000000       0.00000000       0.00000000 </v>
   <v>       0.00000000       0.00000000       0.00000000 </v>
   <v>       0.00000000       0.00000000       0.00000000 </v>
   <v>       0.00000000       0.00000000       0.00000000 </v>
   <v>       0.00000000       0.00000000       0.00000000 </v>
   <v>       0.00000000       0.00000000       0.00000000 </v>
   <v>       0.00000000       0.00000000       0.00000000 </v>
   <v>       0.00000000       0.00000000       0.00000000 </v>
   <v>       0.00000000       0.00000000       0.00000000 </v>
   <v>       0.00000000       0.00000000       0.00000000 </v>
   <v>       0.00000000       0.00000000       0.00000000 </v>
   <v>       0.00000000       0.00000000       0.00000000 </v>
   <v>       0.00000000       0.00000000       0.00000000 </v>
   <v>       0.00000000       0.00000000       0.00000000 </v>
   <v>       0.00000000       0.00000000       0.00000000 </v>
   <v>       0.00000000       0.00000000       0.00000000 </v>
   <v>       0.00000000       0.00000000       0.00000000 </v>
   <v>       0.00000000       0.00000000       0.00000000 </v>
   <v>       0.00000000       0.00000000       0.00000000 </v>
   <v>       0.00000000       0.00000000       0.00000000 </v>
   <v>       0.00000000       0.00000000       0.00000000 </v>
   <v>       0.00000000       0.00000000       0.00000000 </v>
   <v>       0.00000000       0.00000000       0.00000000 </v>
   <v>       0.00000000       0.00000000       0.00000000 </v>
   <v>       0.00000000       0.00000000       0.00000000 </v>
   <v>       0.00000000       0.00000000       0.00000000 </v>
   <v>       0.00000000       0.00000000       0.00000000 </v>
   <v>       0.00000000       0.00000000       0.00000000 </v>
   <v>       0.00000000       0.00000000       0.00000000 </v>
   <v>       0.00000000       0.00000000       0.00000000 </v>
   <v>       0.00000000       0.00000000       0.00000000 </v>
   <v>       0.00000000       0.00000000       0.00000000 </v>
   <v>       0.00000000       0.00000000       0.00000000 </v>
  </varray>
 </structure>
 <calculation>
  <scstep>
   <time name="dav">    4.09    4.11</time>
   <time name="total">    4.68    4.72</time>
   <energy>
    <i name="alphaZ">     82.54348252 </i>
    <i name="ewald">  34517.35145771 </i>
    <i name="hartreedc"> -41035.54754144 </i>
    <i name="XCdc">    721.38561257 </i>
    <i name="pawpsdc">  22781.19595426 </i>
    <i name="pawaedc"> -22817.52509957 </i>
    <i name="eentropy">     -0.00045073 </i>
    <i name="bandstr">  -2491.27685334 </i>
    <i name="atom">   7788.62438962 </i>
    <i name="e_fr_energy">   -453.24904840 </i>
    <i name="e_wo_entrp">   -453.24859767 </i>
    <i name="e_0_energy">   -453.24882303 </i>
   </energy>
  </scstep>
  <scstep>
   <time name="diag">    0.88    0.89</time>
   <time name="diis">    3.75    3.79</time>
   <time name="orth">    0.04    0.04</time>
   <time name="total">    5.26    5.31</time>
   <energy>
    <i name="e_fr_energy">   -454.23744793 </i>
    <i name="e_wo_entrp">   -454.23737554 </i>
    <i name="e_0_energy">   -454.23741174 </i>
   </energy>
  </scstep>
  <scstep>
   <time name="diag">    0.89    0.90</time>
   <time name="diis">    4.07    4.10</time>
   <time name="orth">    0.04    0.04</time>
   <time name="total">    5.58    5.63</time>
   <energy>
    <i name="e_fr_energy">   -454.28960417 </i>
    <i name="e_wo_entrp">   -454.28950440 </i>
    <i name="e_0_energy">   -454.28955428 </i>
   </energy>
  </scstep>
  <scstep>
   <time name="diag">    0.88    0.89</time>
   <time name="diis">    4.07    4.11</time>
   <time name="orth">    0.04    0.04</time>
   <time name="total">    5.57    5.62</time>
   <energy>
    <i name="e_fr_energy">   -454.29347175 </i>
    <i name="e_wo_entrp">   -454.29338586 </i>
    <i name="e_0_energy">   -454.29342880 </i>
   </energy>
  </scstep>
  <scstep>
   <time name="diag">    0.88    0.89</time>
   <time name="diis">    3.92    3.96</time>
   <time name="orth">    0.04    0.04</time>
   <time name="total">    5.43    5.48</time>
   <energy>
    <i name="e_fr_energy">   -454.29357561 </i>
    <i name="e_wo_entrp">   -454.29348658 </i>
    <i name="e_0_energy">   -454.29353109 </i>
   </energy>
  </scstep>
  <scstep>
   <time name="diag">    0.88    0.89</time>
   <time name="diis">    4.00    4.03</time>
   <time name="orth">    0.04    0.04</time>
   <time name="total">    5.50    5.55</time>
   <energy>
    <i name="e_fr_energy">   -454.29360997 </i>
    <i name="e_wo_entrp">   -454.29351884 </i>
    <i name="e_0_energy">   -454.29356441 </i>
   </energy>
  </scstep>
  <scstep>
   <time name="diag">    0.89    0.90</time>
   <time name="diis">    2.87    2.90</time>
   <time name="orth">    0.04    0.04</time>
   <time name="total">    3.98    4.02</time>
   <energy>
    <i name="alphaZ">     82.54348252 </i>
    <i name="ewald">  34517.35145771 </i>
    <i name="hartreedc"> -41035.56465513 </i>
    <i name="XCdc">    721.38777353 </i>
    <i name="pawpsdc">  22778.62849579 </i>
    <i name="pawaedc"> -22814.96047161 </i>
    <i name="eentropy">     -0.00009176 </i>
    <i name="bandstr">  -2492.30399661 </i>
    <i name="atom">   7788.62438962 </i>
    <i name="e_fr_energy">   -454.29361595 </i>
    <i name="e_wo_entrp">   -454.29352418 </i>
    <i name="e_0_energy">   -454.29357006 </i>
   </energy>
  </scstep>
  <structure>
   <crystal>
    <varray name="basis" >
     <v>      12.30000019       0.00000000       0.00000000 </v>
     <v>       6.15000080      10.65211222       0.00000000 </v>
     <v>       0.00000000       0.00000000      20.00000000 </v>
    </varray>
    <i name="volume">   2620.41964732 </i>
    <varray name="rec_basis" >
     <v>       0.08130081      -0.04693905       0.00000000 </v>
     <v>       0.00000000       0.09387809       0.00000000 </v>
     <v>       0.00000000       0.00000000       0.05000000 </v>
    </varray>
   </crystal>
   <varray name="positions" >
    <v>       0.00000000       0.00000000       0.41799748 </v>
    <v>       0.20000000       0.00000000       0.41799748 </v>
    <v>       0.40000000       0.00000000       0.41799748 </v>
    <v>       0.60000000       0.00000000       0.41799748 </v>
    <v>       0.80000000       0.00000000       0.41799748 </v>
    <v>       0.00000000       0.20000000       0.41799748 </v>
    <v>       0.20000000       0.20000000       0.41799748 </v>
    <v>       0.40000000       0.20000000       0.41799748 </v>
    <v>       0.60000000       0.20000000       0.41799748 </v>
    <v>       0.80000000       0.20000000       0.41799748 </v>
    <v>       0.00000000       0.40000000       0.41799748 </v>
    <v>       0.20000000       0.40000000       0.41799748 </v>
    <v>       0.40000000       0.40000000       0.41799748 </v>
    <v>       0.60000000       0.40000000       0.41799748 </v>
    <v>       0.80000000       0.40000000       0.41799748 </v>
    <v>       0.00000000       0.60000000       0.41799748 </v>
    <v>       0.20000000       0.60000000       0.41799748 </v>
    <v>       0.40000000       0.60000000       0.41799748 </v>
    <v>       0.60000000       0.60000000       0.41799748 </v>
    <v>       0.80000000       0.60000000       0.41799748 </v>
    <v>       0.00000000       0.80000000       0.41799748 </v>
    <v>       0.20000000       0.80000000       0.41799748 </v>
    <v>       0.40000000       0.80000000       0.41799748 </v>
    <v>       0.60000000       0.80000000       0.41799748 </v>
    <v>       0.80000000       0.80000000       0.41799748 </v>
    <v>       0.06666667       0.06666660       0.41800609 </v>
    <v>       0.26666667       0.06666660       0.41800609 </v>
    <v>       0.46666667       0.06666660       0.41800609 </v>
    <v>       0.66666667       0.06666660       0.41800609 </v>
    <v>       0.86666667       0.06666660       0.41800609 </v>
    <v>       0.06666667       0.26666660       0.41800609 </v>
    <v>       0.26666667       0.26666660       0.41800609 </v>
    <v>       0.46666667       0.26747961       0.41800609 </v>
    <v>       0.66666667       0.26666660       0.41800609 </v>
    <v>       0.86666667       0.26666660       0.41800609 </v>
    <v>       0.06666667       0.46666660       0.41800609 </v>
    <v>       0.26666667       0.46666660       0.41800609 </v>
    <v>       0.46666667       0.46666660       0.41800609 </v>
    <v>       0.66666667       0.46666660       0.41800609 </v>
    <v>       0.86666667       0.46666660       0.41800609 </v>
    <v>       0.06666667       0.66666660       0.41800609 </v>
    <v>       0.26666667       0.66666660       0.41800609 </v>
    <v>       0.46666667       0.66666660       0.41800609 </v>
    <v>       0.66666667       0.66666660       0.41800609 </v>
    <v>       0.86666667       0.66666660       0.41800609 </v>
    <v>       0.06666667       0.86666660       0.41800609 </v>
    <v>       0.26666667       0.86666660       0.41800609 </v>
    <v>       0.46666667       0.86666660       0.41800609 </v>
    <v>       0.66666667       0.86666660       0.41800609 </v>
    <v>       0.86666667       0.86666660       0.41800609 </v>
    <v>       0.40000000       0.40000000       0.46800609 </v>
   </varray>
  </structure>
  <varray name="forces" >
   <v>      -0.04879635      -0.02983371       0.00922310 </v>
   <v>       0.04134558      -0.03118632       0.00941352 </v>
   <v>      -0.16851600       0.01814375      -0.02539533 </v>
   <v>       0.01252135      -0.22102846      -0.02625479 </v>
   <v>       0.16061100       0.01909063      -0.02557370 </v>
   <v>       0.00142939       0.05696602       0.00921875 </v>
   <v>       0.41964855       0.24079878      -0.00024955 </v>
   <v>       0.22591524      -0.05972321       0.16025788 </v>
   <v>      -0.02360404      -0.12198030       0.16017377 </v>
   <v>      -0.42186528       0.25185968       0.00061792 </v>
   <v>      -0.06729968      -0.14046656      -0.02576621 </v>
   <v>      -0.11492367       0.21247042       0.16260520 </v>
   <v>       0.03167145       0.36785592     -48.25555599 </v>
   <v>       0.12141611       0.19420008       0.16427116 </v>
   <v>       0.06584770      -0.14332783      -0.02594373 </v>
   <v>      -0.17568161       0.10203720      -0.02681241 </v>
   <v>      -0.22716350       0.00837987       0.16248992 </v>
   <v>       0.22917324       0.01350422       0.16509749 </v>
   <v>       0.17685474       0.10203180      -0.02687677 </v>
   <v>       0.00120558      -0.01178731       0.01779860 </v>
   <v>       0.09218579       0.12951717      -0.02584426 </v>
   <v>      -0.00115267      -0.49937627      -0.00012011 </v>
   <v>      -0.09111201       0.13064326      -0.02600007 </v>
   <v>      -0.01376109       0.00123976       0.01770616 </v>
   <v>       0.01263913       0.00395343       0.01757130 </v>
   <v>       0.00329714      -0.00288800      -0.00608581 </v>
   <v>       0.10329151      -0.21248370       0.00995073 </v>
   <v>       0.21881425       0.30016247       0.24895558 </v>
   <v>      -0.22878418       0.25935565       0.25570828 </v>
   <v>      -0.09649436      -0.21594474       0.01000986 </v>
   <v>      -0.13847746       0.18871504       0.01006293 </v>
   <v>      -0.40165342      -0.29064706      -0.35097201 </v>
   <v>      -0.27500431      -5.60492830      -4.28826692 </v>
   <v>       0.45684565      -0.28416450      -0.35664152 </v>
   <v>       0.13776566       0.19023117       0.01016486 </v>
   <v>       0.31128390       0.04381362       0.25784447 </v>
   <v>      -4.43776798       2.54191792      -4.38175143 </v>
   <v>       4.42098813       2.56488307      -4.36860582 </v>
   <v>      -0.31015805       0.04432793       0.25745276 </v>
   <v>       0.00133377       0.08033036      -0.02234933 </v>
   <v>       0.11499794      -0.29092259       0.25805294 </v>
   <v>       0.00316529       0.51224178      -0.35394596 </v>
   <v>      -0.11696171      -0.29187158       0.25806976 </v>
   <v>      -0.08050557      -0.04220447      -0.02658982 </v>
   <v>       0.07800970      -0.04429313      -0.02650419 </v>
   <v>      -0.23852088       0.02595441       0.00999328 </v>
   <v>       0.23874474       0.02793449       0.01005347 </v>
   <v>       0.07280349      -0.04075571      -0.02155006 </v>
   <v>       0.00171256       0.10478623      -0.02617335 </v>
   <v>      -0.07364138      -0.04045098      -0.02201533 </v>
   <v>      -0.00367340      -0.11708139      60.08908079 </v>
  </varray>
  <varray name="stress" >
   <v>       9.46639276      -0.07032757      -0.00263039 </v>
   <v>      -0.07032757       9.53028553      -0.07062209 </v>
   <v>      -0.00263040      -0.07062210      31.95796074 </v>
  </varray>
  <energy>
   <i name="e_fr_energy">   -454.29361595 </i>
   <i name="e_wo_entrp">   -454.29357006 </i>
   <i name="e_0_energy">     -0.00009176 </i>
  </energy>
  <time name="totalsc">   42.09   42.49</time>
  <eigenvalues>
   <array>
    <dimension dim="1">band</dimension>
    <dimension dim="2">kpoint</dimension>
    <dimension dim="3">spin</dimension>
    <field>eigene</field>
    <field>occ</field>
    <set>
     <set comment="spin 1">
      <set comment="kpoint 1">
       <r>  -31.7737    1.0000 </r>
       <r>  -22.2699    1.0000 </r>
       <r>  -21.5045    1.0000 </r>
       <r>  -21.4996    1.0000 </r>
       <r>  -21.3941    1.0000 </r>
       <r>  -21.3935    1.0000 </r>
       <r>  -21.3921    1.0000 </r>
       <r>  -20.8718    1.0000 </r>
       <r>  -19.8846    1.0000 </r>
       <r>  -19.8763    1.0000 </r>
       <r>  -19.5482    1.0000 </r>
       <r>  -19.5465    1.0000 </r>
       <r>  -19.5378    1.0000 </r>
       <r>  -19.1910    1.0000 </r>
       <r>  -18.9053    1.0000 </r>
       <r>  -18.9015    1.0000 </r>
       <r>  -18.6424    1.0000 </r>
       <r>  -18.6417    1.0000 </r>
       <r>  -18.6394    1.0000 </r>
       <r>  -17.8870    1.0000 </r>
       <r>  -17.0391    1.0000 </r>
       <r>  -17.0234    1.0000 </r>
       <r>  -16.4746    1.0000 </r>
       <r>  -16.4576    1.0000 </r>
       <r>  -16.4565    1.0000 </r>
       <r>  -16.0516    1.0000 </r>
       <r>  -15.9999    1.0000 </r>
       <r>  -15.9975    1.0000 </r>
       <r>  -15.4971    1.0000 </r>
       <r>  -15.4947    1.0000 </r>
       <r>  -15.4908    1.0000 </r>
       <r>  -15.0974    1.0000 </r>
       <r>  -14.6356    1.0000 </r>
       <r>  -14.6292    1.0000 </r>
       <r>  -14.1496    1.0000 </r>
       <r>  -14.1450    1.0000 </r>
       <r>  -14.1395    1.0000 </r>
       <r>  -13.9728    1.0000 </r>
       <r>  -13.0007    1.0000 </r>
       <r>  -12.9916    1.0000 </r>
       <r>  -12.0375    1.0000 </r>
       <r>  -11.7645    1.0000 </r>
       <r>  -11.7621    1.0000 </r>
       <r>  -11.7549    1.0000 </r>
       <r>  -11.6900    1.0000 </r>
       <r>  -11.6863    1.0000 </r>
       <r>  -11.6503    1.0000 </r>
       <r>  -11.6491    1.0000 </r>
       <r>  -11.6478    1.0000 </r>
       <r>  -11.6474    1.0000 </r>
       <r>  -10.8050    1.0000 </r>
       <r>  -10.8006    1.0000 </r>
       <r>  -10.4313    1.0000 </r>
       <r>  -10.3335    1.0000 </r>
       <r>  -10.2891    1.0000 </r>
       <r>  -10.2868    1.0000 </r>
       <r>  -10.2657    1.0000 </r>
       <r>  -10.0846    1.0000 </r>
       <r>   -9.6880    1.0000 </r>
       <r>   -9.6834    1.0000 </r>
       <r>   -9.3260    1.0000 </r>
       <r>   -9.3240    1.0000 </r>
       <r>   -9.2997    1.0000 </r>
       <r>   -9.2794    1.0000 </r>
       <r>   -9.2777    1.0000 </r>
       <r>   -9.0418    1.0000 </r>
       <r>   -9.0040    1.0000 </r>
       <r>   -8.9952    1.0000 </r>
       <r>   -8.9481    1.0000 </r>
       <r>   -8.9406    1.0000 </r>
       <r>   -8.9396    1.0000 </r>
       <r>   -8.9382    1.0000 </r>
       <r>   -8.9183    1.0000 </r>
       <r>   -8.9163    1.0000 </r>
       <r>   -8.8933    1.0000 </r>
       <r>   -8.4371    1.0000 </r>
       <r>   -7.8044    1.0000 </r>
       <r>   -7.8004    1.0000 </r>
       <r>   -7.3236    1.0000 </r>
       <r>   -7.3206    1.0000 </r>
       <r>   -7.3084    1.0000 </r>
       <r>   -7.3026    1.0000 </r>
       <r>   -7.2999    1.0000 </r>
       <r>   -7.2953    1.0000 </r>
       <r>   -7.1601    1.0000 </r>
       <r>   -7.1596    1.0000 </r>
       <r>   -7.1542    1.0000 </r>
       <r>   -6.7506    1.0000 </r>
       <r>   -6.5111    1.0000 </r>
       <r>   -6.5077    1.0000 </r>
       <r>   -6.2660    1.0000 </r>
       <r>   -6.2461    1.0000 </r>
       <r>   -6.2446    1.0000 </r>
       <r>   -5.9228    1.0000 </r>
       <r>   -5.9187    1.0000 </r>
       <r>   -5.1937    1.0000 </r>
       <r>   -4.7770    1.0000 </r>
       <r>   -4.7645    1.0000 </r>
       <r>   -4.2693    1.0000 </r>
       <r>   -4.2659    1.0000 </r>
       <r>   -4.2654    1.0000 </r>
       <r>   -3.2186    1.0000 </r>
       <r>   -3.2178    1.0000 </r>
       <r>   -2.9141    0.0017 </r>
       <r>   -1.4601    0.0000 </r>
       <r>   -1.4565    0.0000 </r>
       <r>   -1.4560    0.0000 </r>
       <r>   -0.9917    0.0000 </r>
       <r>   -0.9870    0.0000 </r>
       <r>   -0.5435    0.0000 </r>
       <r>    0.4180    0.0000 </r>
       <r>    0.4213    0.0000 </r>
       <r>    0.4239    0.0000 </r>
       <r>    0.5625    0.0000 </r>
       <r>    0.8423    0.0000 </r>
       <r>    0.8463    0.0000 </r>
       <r>    1.2921    0.0000 </r>
       <r>    1.3401    0.0000 </r>
       <r>    1.6812    0.0000 </r>
       <r>    1.8017    0.0000 </r>
       <r>    1.8034    0.0000 </r>
       <r>    1.8046    0.0000 </r>
       <r>    1.8259    0.0000 </r>
       <r>    1.8286    0.0000 </r>
       <r>    2.0289    0.0000 </r>
       <r>    2.1775    0.0000 </r>
       <r>    2.1801    0.0000 </r>
       <r>    2.1811    0.0000 </r>
       <r>    2.3437    0.0000 </r>
       <r>    2.3472    0.0000 </r>
       <r>    2.5999    0.0000 </r>
       <r>    2.6573    0.0000 </r>
      </set>
      <set comment="kpoint 2">
       <r>  -31.7738    1.0000 </r>
       <r>  -22.1882    1.0000 </r>
       <r>  -21.8681    1.0000 </r>
       <r>  -21.6588    1.0000 </r>
       <r>  -21.4542    1.0000 </r>
       <r>  -21.0327    1.0000 </r>
       <r>  -20.8983    1.0000 </r>
       <r>  -20.7284    1.0000 </r>
       <r>  -20.4185    1.0000 </r>
       <r>  -20.1600    1.0000 </r>
       <r>  -19.7858    1.0000 </r>
       <r>  -19.7022    1.0000 </r>
       <r>  -19.3258    1.0000 </r>
       <r>  -19.2430    1.0000 </r>
       <r>  -19.0641    1.0000 </r>
       <r>  -18.5916    1.0000 </r>
       <r>  -18.4606    1.0000 </r>
       <r>  -18.1237    1.0000 </r>
       <r>  -18.0657    1.0000 </r>
       <r>  -17.5909    1.0000 </r>
       <r>  -17.4989    1.0000 </r>
       <r>  -17.2986    1.0000 </r>
       <r>  -17.2774    1.0000 </r>
       <r>  -16.8522    1.0000 </r>
       <r>  -16.6615    1.0000 </r>
       <r>  -16.1781    1.0000 </r>
       <r>  -15.9827    1.0000 </r>
       <r>  -15.8530    1.0000 </r>
       <r>  -15.2992    1.0000 </r>
       <r>  -15.1721    1.0000 </r>
       <r>  -15.1345    1.0000 </r>
       <r>  -14.8831    1.0000 </r>
       <r>  -14.7823    1.0000 </r>
       <r>  -14.4844    1.0000 </r>
       <r>  -14.4544    1.0000 </r>
       <r>  -13.7729    1.0000 </r>
       <r>  -13.7617    1.0000 </r>
       <r>  -13.1988    1.0000 </r>
       <r>  -13.0893    1.0000 </r>
       <r>  -12.9322    1.0000 </r>
       <r>  -12.9020    1.0000 </r>
       <r>  -12.5839    1.0000 </r>
       <r>  -12.5499    1.0000 </r>
       <r>  -12.3888    1.0000 </r>
       <r>  -12.0183    1.0000 </r>
       <r>  -11.6654    1.0000 </r>
       <r>  -11.4481    1.0000 </r>
       <r>  -11.2957    1.0000 </r>
       <r>  -11.1224    1.0000 </r>
       <r>  -10.9157    1.0000 </r>
       <r>  -10.8501    1.0000 </r>
       <r>  -10.5818    1.0000 </r>
       <r>  -10.5300    1.0000 </r>
       <r>  -10.2884    1.0000 </r>
       <r>  -10.2366    1.0000 </r>
       <r>  -10.1616    1.0000 </r>
       <r>  -10.0508    1.0000 </r>
       <r>   -9.8524    1.0000 </r>
       <r>   -9.8178    1.0000 </r>
       <r>   -9.6551    1.0000 </r>
       <r>   -9.6057    1.0000 </r>
       <r>   -9.5606    1.0000 </r>
       <r>   -9.5263    1.0000 </r>
       <r>   -9.3668    1.0000 </r>
       <r>   -9.3388    1.0000 </r>
       <r>   -9.2587    1.0000 </r>
       <r>   -9.1739    1.0000 </r>
       <r>   -9.0982    1.0000 </r>
       <r>   -9.0829    1.0000 </r>
       <r>   -8.8631    1.0000 </r>
       <r>   -8.7105    1.0000 </r>
       <r>   -8.6644    1.0000 </r>
       <r>   -8.5045    1.0000 </r>
       <r>   -8.4010    1.0000 </r>
       <r>   -8.2851    1.0000 </r>
       <r>   -8.1322    1.0000 </r>
       <r>   -8.0948    1.0000 </r>
       <r>   -8.0647    1.0000 </r>
       <r>   -7.9694    1.0000 </r>
       <r>   -7.8056    1.0000 </r>
       <r>   -7.6170    1.0000 </r>
       <r>   -7.3590    1.0000 </r>
       <r>   -7.3361    1.0000 </r>
       <r>   -7.2650    1.0000 </r>
       <r>   -7.1976    1.0000 </r>
       <r>   -6.9196    1.0000 </r>
       <r>   -6.8731    1.0000 </r>
       <r>   -6.6911    1.0000 </r>
       <r>   -6.5933    1.0000 </r>
       <r>   -6.3476    1.0000 </r>
       <r>   -6.1848    1.0000 </r>
       <r>   -6.0718    1.0000 </r>
       <r>   -5.9212    1.0000 </r>
       <r>   -5.7411    1.0000 </r>
       <r>   -5.6429    1.0000 </r>
       <r>   -5.3221    1.0000 </r>
       <r>   -5.1178    1.0000 </r>
       <r>   -4.9692    1.0000 </r>
       <r>   -4.9219    1.0000 </r>
       <r>   -4.2699    1.0000 </r>
       <r>   -4.1726    1.0000 </r>
       <r>   -3.3360    1.0000 </r>
       <r>   -3.1405    0.9997 </r>
       <r>   -2.8074    0.0000 </r>
       <r>   -1.5885    0.0000 </r>
       <r>   -1.4222    0.0000 </r>
       <r>   -0.8394    0.0000 </r>
       <r>   -0.8176    0.0000 </r>
       <r>   -0.7050    0.0000 </r>
       <r>   -0.6673    0.0000 </r>
       <r>   -0.1285    0.0000 </r>
       <r>   -0.0036    0.0000 </r>
       <r>    0.2922    0.0000 </r>
       <r>    0.7050    0.0000 </r>
       <r>    0.7268    0.0000 </r>
       <r>    1.0999    0.0000 </r>
       <r>    1.1765    0.0000 </r>
       <r>    1.3645    0.0000 </r>
       <r>    1.4637    0.0000 </r>
       <r>    1.5384    0.0000 </r>
       <r>    1.5705    0.0000 </r>
       <r>    1.6367    0.0000 </r>
       <r>    1.8308    0.0000 </r>
       <r>    1.9126    0.0000 </r>
       <r>    2.0386    0.0000 </r>
       <r>    2.2217    0.0000 </r>
       <r>    2.2714    0.0000 </r>
       <r>    2.3291    0.0000 </r>
       <r>    2.3415    0.0000 </r>
       <r>    2.3965    0.0000 </r>
       <r>    2.4564    0.0000 </r>
       <r>    2.7957    0.0000 </r>
      </set>
      <set comment="kpoint 3">
       <r>  -31.7738    1.0000 </r>
       <r>  -22.1879    1.0000 </r>
       <r>  -21.8684    1.0000 </r>
       <r>  -21.6608    1.0000 </r>
       <r>  -21.4517    1.0000 </r>
       <r>  -21.0344    1.0000 </r>
       <r>  -20.8959    1.0000 </r>
       <r>  -20.7277    1.0000 </r>
       <r>  -20.4197    1.0000 </r>
       <r>  -20.1618    1.0000 </r>
       <r>  -19.7886    1.0000 </r>
       <r>  -19.7000    1.0000 </r>
       <r>  -19.3248    1.0000 </r>
       <r>  -19.2423    1.0000 </r>
       <r>  -19.0626    1.0000 </r>
       <r>  -18.5916    1.0000 </r>
       <r>  -18.4619    1.0000 </r>
       <r>  -18.1205    1.0000 </r>
       <r>  -18.0686    1.0000 </r>
       <r>  -17.5921    1.0000 </r>
       <r>  -17.4973    1.0000 </r>
       <r>  -17.2999    1.0000 </r>
       <r>  -17.2760    1.0000 </r>
       <r>  -16.8546    1.0000 </r>
       <r>  -16.6579    1.0000 </r>
       <r>  -16.1871    1.0000 </r>
       <r>  -15.9802    1.0000 </r>
       <r>  -15.8495    1.0000 </r>
       <r>  -15.2985    1.0000 </r>
       <r>  -15.1729    1.0000 </r>
       <r>  -15.1323    1.0000 </r>
       <r>  -14.8816    1.0000 </r>
       <r>  -14.7816    1.0000 </r>
       <r>  -14.4864    1.0000 </r>
       <r>  -14.4550    1.0000 </r>
       <r>  -13.7744    1.0000 </r>
       <r>  -13.7594    1.0000 </r>
       <r>  -13.1990    1.0000 </r>
       <r>  -13.0882    1.0000 </r>
       <r>  -12.9332    1.0000 </r>
       <r>  -12.9033    1.0000 </r>
       <r>  -12.5841    1.0000 </r>
       <r>  -12.5506    1.0000 </r>
       <r>  -12.3901    1.0000 </r>
       <r>  -12.0191    1.0000 </r>
       <r>  -11.6625    1.0000 </r>
       <r>  -11.4516    1.0000 </r>
       <r>  -11.2933    1.0000 </r>
       <r>  -11.1228    1.0000 </r>
       <r>  -10.9158    1.0000 </r>
       <r>  -10.8451    1.0000 </r>
       <r>  -10.5835    1.0000 </r>
       <r>  -10.5303    1.0000 </r>
       <r>  -10.2894    1.0000 </r>
       <r>  -10.2364    1.0000 </r>
       <r>  -10.1582    1.0000 </r>
       <r>  -10.0514    1.0000 </r>
       <r>   -9.8528    1.0000 </r>
       <r>   -9.8191    1.0000 </r>
       <r>   -9.6558    1.0000 </r>
       <r>   -9.6064    1.0000 </r>
       <r>   -9.5621    1.0000 </r>
       <r>   -9.5265    1.0000 </r>
       <r>   -9.3687    1.0000 </r>
       <r>   -9.3384    1.0000 </r>
       <r>   -9.2587    1.0000 </r>
       <r>   -9.1714    1.0000 </r>
       <r>   -9.0982    1.0000 </r>
       <r>   -9.0824    1.0000 </r>
       <r>   -8.8643    1.0000 </r>
       <r>   -8.7115    1.0000 </r>
       <r>   -8.6631    1.0000 </r>
       <r>   -8.5050    1.0000 </r>
       <r>   -8.3954    1.0000 </r>
       <r>   -8.2861    1.0000 </r>
       <r>   -8.1317    1.0000 </r>
       <r>   -8.0952    1.0000 </r>
       <r>   -8.0627    1.0000 </r>
       <r>   -7.9704    1.0000 </r>
       <r>   -7.8068    1.0000 </r>
       <r>   -7.6200    1.0000 </r>
       <r>   -7.3614    1.0000 </r>
       <r>   -7.3361    1.0000 </r>
       <r>   -7.2668    1.0000 </r>
       <r>   -7.1968    1.0000 </r>
       <r>   -6.9192    1.0000 </r>
       <r>   -6.8722    1.0000 </r>
       <r>   -6.6891    1.0000 </r>
       <r>   -6.5925    1.0000 </r>
       <r>   -6.3475    1.0000 </r>
       <r>   -6.1834    1.0000 </r>
       <r>   -6.0715    1.0000 </r>
       <r>   -5.9240    1.0000 </r>
       <r>   -5.7380    1.0000 </r>
       <r>   -5.6462    1.0000 </r>
       <r>   -5.3232    1.0000 </r>
       <r>   -5.1148    1.0000 </r>
       <r>   -4.9703    1.0000 </r>
       <r>   -4.9219    1.0000 </r>
       <r>   -4.2712    1.0000 </r>
       <r>   -4.1691    1.0000 </r>
       <r>   -3.3474    1.0000 </r>
       <r>   -3.1402    0.9997 </r>
       <r>   -2.7961    0.0000 </r>
       <r>   -1.5904    0.0000 </r>
       <r>   -1.4232    0.0000 </r>
       <r>   -0.8395    0.0000 </r>
       <r>   -0.8186    0.0000 </r>
       <r>   -0.7053    0.0000 </r>
       <r>   -0.6672    0.0000 </r>
       <r>   -0.1256    0.0000 </r>
       <r>   -0.0055    0.0000 </r>
       <r>    0.2926    0.0000 </r>
       <r>    0.7051    0.0000 </r>
       <r>    0.7279    0.0000 </r>
       <r>    1.0986    0.0000 </r>
       <r>    1.1761    0.0000 </r>
       <r>    1.3658    0.0000 </r>
       <r>    1.4645    0.0000 </r>
       <r>    1.5380    0.0000 </r>
       <r>    1.5706    0.0000 </r>
       <r>    1.6370    0.0000 </r>
       <r>    1.8317    0.0000 </r>
       <r>    1.9136    0.0000 </r>
       <r>    2.0413    0.0000 </r>
       <r>    2.2266    0.0000 </r>
       <r>    2.2748    0.0000 </r>
       <r>    2.3373    0.0000 </r>
       <r>    2.4263    0.0000 </r>
       <r>    2.7424    0.0000 </r>
       <r>    3.2545    0.0000 </r>
       <r>    3.6138    0.0000 </r>
      </set>
      <set comment="kpoint 4">
       <r>  -31.7738    1.0000 </r>
       <r>  -22.1879    1.0000 </r>
       <r>  -21.8679    1.0000 </r>
       <r>  -21.6610    1.0000 </r>
       <r>  -21.4530    1.0000 </r>
       <r>  -21.0345    1.0000 </r>
       <r>  -20.8952    1.0000 </r>
       <r>  -20.7259    1.0000 </r>
       <r>  -20.4200    1.0000 </r>
       <r>  -20.1613    1.0000 </r>
       <r>  -19.7868    1.0000 </r>
       <r>  -19.7053    1.0000 </r>
       <r>  -19.3254    1.0000 </r>
       <r>  -19.2428    1.0000 </r>
       <r>  -19.0611    1.0000 </r>
       <r>  -18.5918    1.0000 </r>
       <r>  -18.4593    1.0000 </r>
       <r>  -18.1242    1.0000 </r>
       <r>  -18.0638    1.0000 </r>
       <r>  -17.5903    1.0000 </r>
       <r>  -17.4978    1.0000 </r>
       <r>  -17.3009    1.0000 </r>
       <r>  -17.2772    1.0000 </r>
       <r>  -16.8546    1.0000 </r>
       <r>  -16.6647    1.0000 </r>
       <r>  -16.1777    1.0000 </r>
       <r>  -15.9818    1.0000 </r>
       <r>  -15.8520    1.0000 </r>
       <r>  -15.2987    1.0000 </r>
       <r>  -15.1719    1.0000 </r>
       <r>  -15.1337    1.0000 </r>
       <r>  -14.8829    1.0000 </r>
       <r>  -14.7823    1.0000 </r>
       <r>  -14.4847    1.0000 </r>
       <r>  -14.4536    1.0000 </r>
       <r>  -13.7680    1.0000 </r>
       <r>  -13.7655    1.0000 </r>
       <r>  -13.2004    1.0000 </r>
       <r>  -13.0860    1.0000 </r>
       <r>  -12.9322    1.0000 </r>
       <r>  -12.9016    1.0000 </r>
       <r>  -12.5867    1.0000 </r>
       <r>  -12.5474    1.0000 </r>
       <r>  -12.3915    1.0000 </r>
       <r>  -12.0244    1.0000 </r>
       <r>  -11.6651    1.0000 </r>
       <r>  -11.4465    1.0000 </r>
       <r>  -11.2958    1.0000 </r>
       <r>  -11.1233    1.0000 </r>
       <r>  -10.9137    1.0000 </r>
       <r>  -10.8488    1.0000 </r>
       <r>  -10.5828    1.0000 </r>
       <r>  -10.5270    1.0000 </r>
       <r>  -10.2869    1.0000 </r>
       <r>  -10.2364    1.0000 </r>
       <r>  -10.1628    1.0000 </r>
       <r>  -10.0500    1.0000 </r>
       <r>   -9.8525    1.0000 </r>
       <r>   -9.8155    1.0000 </r>
       <r>   -9.6555    1.0000 </r>
       <r>   -9.6065    1.0000 </r>
       <r>   -9.5619    1.0000 </r>
       <r>   -9.5253    1.0000 </r>
       <r>   -9.3700    1.0000 </r>
       <r>   -9.3391    1.0000 </r>
       <r>   -9.2573    1.0000 </r>
       <r>   -9.1735    1.0000 </r>
       <r>   -9.0983    1.0000 </r>
       <r>   -9.0823    1.0000 </r>
       <r>   -8.8642    1.0000 </r>
       <r>   -8.7132    1.0000 </r>
       <r>   -8.6633    1.0000 </r>
       <r>   -8.5028    1.0000 </r>
       <r>   -8.4012    1.0000 </r>
       <r>   -8.2868    1.0000 </r>
       <r>   -8.1330    1.0000 </r>
       <r>   -8.0926    1.0000 </r>
       <r>   -8.0647    1.0000 </r>
       <r>   -7.9696    1.0000 </r>
       <r>   -7.8068    1.0000 </r>
       <r>   -7.6166    1.0000 </r>
       <r>   -7.3586    1.0000 </r>
       <r>   -7.3374    1.0000 </r>
       <r>   -7.2656    1.0000 </r>
       <r>   -7.1961    1.0000 </r>
       <r>   -6.9194    1.0000 </r>
       <r>   -6.8728    1.0000 </r>
       <r>   -6.6934    1.0000 </r>
       <r>   -6.5908    1.0000 </r>
       <r>   -6.3457    1.0000 </r>
       <r>   -6.1851    1.0000 </r>
       <r>   -6.0736    1.0000 </r>
       <r>   -5.9211    1.0000 </r>
       <r>   -5.7412    1.0000 </r>
       <r>   -5.6408    1.0000 </r>
       <r>   -5.3219    1.0000 </r>
       <r>   -5.1183    1.0000 </r>
       <r>   -4.9701    1.0000 </r>
       <r>   -4.9219    1.0000 </r>
       <r>   -4.2701    1.0000 </r>
       <r>   -4.1741    1.0000 </r>
       <r>   -3.3384    1.0000 </r>
       <r>   -3.1386    0.9997 </r>
       <r>   -2.8045    0.0000 </r>
       <r>   -1.5908    0.0000 </r>
       <r>   -1.4222    0.0000 </r>
       <r>   -0.8391    0.0000 </r>
       <r>   -0.8188    0.0000 </r>
       <r>   -0.7060    0.0000 </r>
       <r>   -0.6650    0.0000 </r>
       <r>   -0.1275    0.0000 </r>
       <r>   -0.0048    0.0000 </r>
       <r>    0.2922    0.0000 </r>
       <r>    0.7052    0.0000 </r>
       <r>    0.7293    0.0000 </r>
       <r>    1.1004    0.0000 </r>
       <r>    1.1760    0.0000 </r>
       <r>    1.3658    0.0000 </r>
       <r>    1.4654    0.0000 </r>
       <r>    1.5625    0.0000 </r>
       <r>    1.5786    0.0000 </r>
       <r>    1.7506    0.0000 </r>
       <r>    1.8322    0.0000 </r>
       <r>    2.1775    0.0000 </r>
       <r>    2.3363    0.0000 </r>
       <r>    2.3972    0.0000 </r>
       <r>    2.6180    0.0000 </r>
       <r>    2.7884    0.0000 </r>
       <r>    2.8469    0.0000 </r>
       <r>    3.2050    0.0000 </r>
       <r>    3.5946    0.0000 </r>
       <r>    4.1711    0.0000 </r>
      </set>
      <set comment="kpoint 5">
       <r>  -31.7738    1.0000 </r>
       <r>  -22.0798    1.0000 </r>
       <r>  -22.0065    1.0000 </r>
       <r>  -21.7997    1.0000 </r>
       <r>  -21.1707    1.0000 </r>
       <r>  -21.1503    1.0000 </r>
       <r>  -20.8662    1.0000 </r>
       <r>  -20.4133    1.0000 </r>
       <r>  -20.3408    1.0000 </r>
       <r>  -20.1708    1.0000 </r>
       <r>  -20.1492    1.0000 </r>
       <r>  -20.1417    1.0000 </r>
       <r>  -19.5662    1.0000 </r>
       <r>  -18.8315    1.0000 </r>
       <r>  -18.6810    1.0000 </r>
       <r>  -18.3708    1.0000 </r>
       <r>  -18.3476    1.0000 </r>
       <r>  -18.3352    1.0000 </r>
       <r>  -17.9293    1.0000 </r>
       <r>  -17.8035    1.0000 </r>
       <r>  -17.6020    1.0000 </r>
       <r>  -17.2616    1.0000 </r>
       <r>  -17.1536    1.0000 </r>
       <r>  -17.1209    1.0000 </r>
       <r>  -16.5450    1.0000 </r>
       <r>  -16.4429    1.0000 </r>
       <r>  -16.2874    1.0000 </r>
       <r>  -15.8092    1.0000 </r>
       <r>  -15.6301    1.0000 </r>
       <r>  -15.1794    1.0000 </r>
       <r>  -14.9773    1.0000 </r>
       <r>  -14.6575    1.0000 </r>
       <r>  -13.9577    1.0000 </r>
       <r>  -13.9370    1.0000 </r>
       <r>  -13.9230    1.0000 </r>
       <r>  -13.8718    1.0000 </r>
       <r>  -13.8622    1.0000 </r>
       <r>  -13.7906    1.0000 </r>
       <r>  -13.6841    1.0000 </r>
       <r>  -13.4935    1.0000 </r>
       <r>  -13.0385    1.0000 </r>
       <r>  -12.4769    1.0000 </r>
       <r>  -12.2527    1.0000 </r>
       <r>  -12.0721    1.0000 </r>
       <r>  -11.8215    1.0000 </r>
       <r>  -11.7763    1.0000 </r>
       <r>  -11.5606    1.0000 </r>
       <r>  -11.5432    1.0000 </r>
       <r>  -11.5210    1.0000 </r>
       <r>  -10.9293    1.0000 </r>
       <r>  -10.8200    1.0000 </r>
       <r>  -10.5323    1.0000 </r>
       <r>  -10.2048    1.0000 </r>
       <r>  -10.2026    1.0000 </r>
       <r>  -10.1927    1.0000 </r>
       <r>  -10.0942    1.0000 </r>
       <r>  -10.0555    1.0000 </r>
       <r>  -10.0211    1.0000 </r>
       <r>   -9.9034    1.0000 </r>
       <r>   -9.7498    1.0000 </r>
       <r>   -9.7484    1.0000 </r>
       <r>   -9.5621    1.0000 </r>
       <r>   -9.4390    1.0000 </r>
       <r>   -9.4017    1.0000 </r>
       <r>   -9.2016    1.0000 </r>
       <r>   -9.0462    1.0000 </r>
       <r>   -9.0327    1.0000 </r>
       <r>   -8.9017    1.0000 </r>
       <r>   -8.8842    1.0000 </r>
       <r>   -8.6854    1.0000 </r>
       <r>   -8.6353    1.0000 </r>
       <r>   -8.6325    1.0000 </r>
       <r>   -8.6213    1.0000 </r>
       <r>   -8.5820    1.0000 </r>
       <r>   -8.3739    1.0000 </r>
       <r>   -8.2496    1.0000 </r>
       <r>   -8.1622    1.0000 </r>
       <r>   -8.0356    1.0000 </r>
       <r>   -7.9845    1.0000 </r>
       <r>   -7.8789    1.0000 </r>
       <r>   -7.8572    1.0000 </r>
       <r>   -7.8540    1.0000 </r>
       <r>   -7.2228    1.0000 </r>
       <r>   -7.1815    1.0000 </r>
       <r>   -7.1254    1.0000 </r>
       <r>   -6.8856    1.0000 </r>
       <r>   -6.7216    1.0000 </r>
       <r>   -6.6110    1.0000 </r>
       <r>   -6.4586    1.0000 </r>
       <r>   -6.2711    1.0000 </r>
       <r>   -6.1063    1.0000 </r>
       <r>   -5.9155    1.0000 </r>
       <r>   -5.9105    1.0000 </r>
       <r>   -5.8970    1.0000 </r>
       <r>   -5.4560    1.0000 </r>
       <r>   -5.4241    1.0000 </r>
       <r>   -5.1226    1.0000 </r>
       <r>   -5.0135    1.0000 </r>
       <r>   -4.9800    1.0000 </r>
       <r>   -4.9570    1.0000 </r>
       <r>   -3.7404    1.0000 </r>
       <r>   -3.4563    1.0000 </r>
       <r>   -3.2850    1.0000 </r>
       <r>   -2.3860    0.0000 </r>
       <r>   -2.2228    0.0000 </r>
       <r>   -0.9279    0.0000 </r>
       <r>   -0.8814    0.0000 </r>
       <r>   -0.8675    0.0000 </r>
       <r>   -0.5377    0.0000 </r>
       <r>   -0.2621    0.0000 </r>
       <r>   -0.2101    0.0000 </r>
       <r>    0.2529    0.0000 </r>
       <r>    0.2589    0.0000 </r>
       <r>    0.2612    0.0000 </r>
       <r>    0.5994    0.0000 </r>
       <r>    0.7929    0.0000 </r>
       <r>    0.9491    0.0000 </r>
       <r>    0.9751    0.0000 </r>
       <r>    1.0604    0.0000 </r>
       <r>    1.7309    0.0000 </r>
       <r>    1.7475    0.0000 </r>
       <r>    1.7711    0.0000 </r>
       <r>    1.8235    0.0000 </r>
       <r>    2.1184    0.0000 </r>
       <r>    2.1239    0.0000 </r>
       <r>    2.1278    0.0000 </r>
       <r>    2.2464    0.0000 </r>
       <r>    2.2485    0.0000 </r>
       <r>    2.3610    0.0000 </r>
       <r>    2.9999    0.0000 </r>
       <r>    3.0122    0.0000 </r>
       <r>    3.0370    0.0000 </r>
      </set>
     </set>
    </set>
   </array>
  </eigenvalues>
  <separator name="orbital magnetization" >
   <v name="MAGDIPOLOUT">      0.00000000      0.00000000      0.00000000</v>
  </separator>
  <dos>
   <i name="efermi">     -3.01777842 </i>
   <total>
    <array>
     <dimension dim="1">gridpoints</dimension>
     <dimension dim="2">spin</dimension>
     <field>energy</field>
     <field>total</field>
     <field>integrated</field>
     <set>
      <set comment="spin 1">
       <r>   -33.5711     0.0000     0.0000 </r>
       <r>   -33.4393     0.0000     0.0000 </r>
       <r>   -33.3075     0.0000     0.0000 </r>
       <r>   -33.1757     0.0000     0.0000 </r>
       <r>   -33.0439     0.0000     0.0000 </r>
       <r>   -32.9121     0.0000     0.0000 </r>
       <r>   -32.7803     0.0000     0.0000 </r>
       <r>   -32.6485     0.0000     0.0000 </r>
       <r>   -32.5167     0.0000     0.0000 </r>
       <r>   -32.3849     0.0000     0.0000 </r>
       <r>   -32.2531     0.0000     0.0000 </r>
       <r>   -32.1213     0.0000     0.0000 </r>
       <r>   -31.9895     0.0000     0.0000 </r>
       <r>   -31.8577     0.1337     0.0176 </r>
       <r>   -31.7259    13.7083     1.8243 </r>
       <r>   -31.5941     1.3328     2.0000 </r>
       <r>   -31.4623     0.0000     2.0000 </r>
       <r>   -31.3305     0.0000     2.0000 </r>
       <r>   -31.1987     0.0000     2.0000 </r>
       <r>   -31.0669     0.0000     2.0000 </r>
       <r>   -30.9351     0.0000     2.0000 </r>
       <r>   -30.8033     0.0000     2.0000 </r>
       <r>   -30.6715     0.0000     2.0000 </r>
       <r>   -30.5397     0.0000     2.0000 </r>
       <r>   -30.4079     0.0000     2.0000 </r>
       <r>   -30.2761     0.0000     2.0000 </r>
       <r>   -30.1443     0.0000     2.0000 </r>
       <r>   -30.0125     0.0000     2.0000 </r>
       <r>   -29.8807     0.0000     2.0000 </r>
       <r>   -29.7489     0.0000     2.0000 </r>
       <r>   -29.6171     0.0000     2.0000 </r>
       <r>   -29.4853     0.0000     2.0000 </r>
       <r>   -29.3535     0.0000     2.0000 </r>
       <r>   -29.2217     0.0000     2.0000 </r>
       <r>   -29.0899     0.0000     2.0000 </r>
       <r>   -28.9581     0.0000     2.0000 </r>
       <r>   -28.8263     0.0000     2.0000 </r>
       <r>   -28.6945     0.0000     2.0000 </r>
       <r>   -28.5627     0.0000     2.0000 </r>
       <r>   -28.4309     0.0000     2.0000 </r>
       <r>   -28.2991     0.0000     2.0000 </r>
       <r>   -28.1673     0.0000     2.0000 </r>
       <r>   -28.0355     0.0000     2.0000 </r>
       <r>   -27.9037     0.0000     2.0000 </r>
       <r>   -27.7719     0.0000     2.0000 </r>
       <r>   -27.6401     0.0000     2.0000 </r>
       <r>   -27.5083     0.0000     2.0000 </r>
       <r>   -27.3765     0.0000     2.0000 </r>
       <r>   -27.2447     0.0000     2.0000 </r>
       <r>   -27.1129     0.0000     2.0000 </r>
       <r>   -26.9812     0.0000     2.0000 </r>
       <r>   -26.8494     0.0000     2.0000 </r>
       <r>   -26.7176     0.0000     2.0000 </r>
       <r>   -26.5858     0.0000     2.0000 </r>
       <r>   -26.4540     0.0000     2.0000 </r>
       <r>   -26.3222     0.0000     2.0000 </r>
       <r>   -26.1904     0.0000     2.0000 </r>
       <r>   -26.0586     0.0000     2.0000 </r>
       <r>   -25.9268     0.0000     2.0000 </r>
       <r>   -25.7950     0.0000     2.0000 </r>
       <r>   -25.6632     0.0000     2.0000 </r>
       <r>   -25.5314     0.0000     2.0000 </r>
       <r>   -25.3996     0.0000     2.0000 </r>
       <r>   -25.2678     0.0000     2.0000 </r>
       <r>   -25.1360     0.0000     2.0000 </r>
       <r>   -25.0042     0.0000     2.0000 </r>
       <r>   -24.8724     0.0000     2.0000 </r>
       <r>   -24.7406     0.0000     2.0000 </r>
       <r>   -24.6088     0.0000     2.0000 </r>
       <r>   -24.4770     0.0000     2.0000 </r>
       <r>   -24.3452     0.0000     2.0000 </r>
       <r>   -24.2134     0.0000     2.0000 </r>
       <r>   -24.0816     0.0000     2.0000 </r>
       <r>   -23.9498     0.0000     2.0000 </r>
       <r>   -23.8180     0.0000     2.0000 </r>
       <r>   -23.6862     0.0000     2.0000 </r>
       <r>   -23.5544     0.0000     2.0000 </r>
       <r>   -23.4226     0.0000     2.0000 </r>
       <r>   -23.2908     0.0000     2.0000 </r>
       <r>   -23.1590     0.0000     2.0000 </r>
       <r>   -23.0272     0.0000     2.0000 </r>
       <r>   -22.8954     0.0000     2.0000 </r>
       <r>   -22.7636     0.0000     2.0000 </r>
       <r>   -22.6318     0.0000     2.0000 </r>
       <r>   -22.5000     0.0000     2.0000 </r>
       <r>   -22.3682     0.0046     2.0006 </r>
       <r>   -22.2364     2.2545     2.2977 </r>
       <r>   -22.1046    10.2725     3.6516 </r>
       <r>   -21.9728     5.4521     4.3702 </r>
       <r>   -21.8410     8.8448     5.5359 </r>
       <r>   -21.7092     6.0285     6.3305 </r>
       <r>   -21.5774     9.2564     7.5505 </r>
       <r>   -21.4456     9.4610     8.7974 </r>
       <r>   -21.3138     9.0617     9.9917 </r>
       <r>   -21.1820     1.9496    10.2487 </r>
       <r>   -21.0502     8.1036    11.3167 </r>
       <r>   -20.9184     9.9617    12.6296 </r>
       <r>   -20.7866    12.4923    14.2761 </r>
       <r>   -20.6548     9.5031    15.5286 </r>
       <r>   -20.5230     0.2249    15.5582 </r>
       <r>   -20.3912    10.6761    16.9653 </r>
       <r>   -20.2594     6.1805    17.7799 </r>
       <r>   -20.1276    16.0174    19.8910 </r>
       <r>   -19.9958     4.2014    20.4447 </r>
       <r>   -19.8641     2.4312    20.7651 </r>
       <r>   -19.7323    12.4685    22.4084 </r>
       <r>   -19.6005     9.5341    23.6650 </r>
       <r>   -19.4687     7.5039    24.6540 </r>
       <r>   -19.3369     3.9015    25.1682 </r>
       <r>   -19.2051    15.5525    27.2180 </r>
       <r>   -19.0733     6.4181    28.0639 </r>
       <r>   -18.9415     6.7360    28.9517 </r>
       <r>   -18.8097     5.3499    29.6568 </r>
       <r>   -18.6779     3.5565    30.1256 </r>
       <r>   -18.5461    14.9704    32.0986 </r>
       <r>   -18.4143    10.6022    33.4960 </r>
       <r>   -18.2825    10.2086    34.8415 </r>
       <r>   -18.1507     2.6258    35.1875 </r>
       <r>   -18.0189    17.0431    37.4338 </r>
       <r>   -17.8871     4.7759    38.0632 </r>
       <r>   -17.7553     4.2867    38.6282 </r>
       <r>   -17.6235     3.0318    39.0278 </r>
       <r>   -17.4917    16.4973    41.2021 </r>
       <r>   -17.3599     4.9240    41.8511 </r>
       <r>   -17.2281    21.4696    44.6807 </r>
       <r>   -17.0963     7.4493    45.6625 </r>
       <r>   -16.9645     4.1453    46.2089 </r>
       <r>   -16.8327     7.4343    47.1887 </r>
       <r>   -16.7009     4.1222    47.7320 </r>
       <r>   -16.5691     9.5754    48.9940 </r>
       <r>   -16.4373     8.3107    50.0894 </r>
       <r>   -16.3055     3.7235    50.5801 </r>
       <r>   -16.1737     8.2175    51.6632 </r>
       <r>   -16.0419     6.0862    52.4653 </r>
       <r>   -15.9101    13.5912    54.2566 </r>
       <r>   -15.7783    12.3887    55.8894 </r>
       <r>   -15.6465     1.9216    56.1427 </r>
       <r>   -15.5147     3.7101    56.6317 </r>
       <r>   -15.3829     3.7209    57.1221 </r>
       <r>   -15.2511     9.3419    58.3534 </r>
       <r>   -15.1193    20.4400    61.0473 </r>
       <r>   -14.9875     6.8571    61.9511 </r>
       <r>   -14.8557    10.0927    63.2813 </r>
       <r>   -14.7239    11.8085    64.8376 </r>
       <r>   -14.5921     6.6046    65.7081 </r>
       <r>   -14.4603    12.5824    67.3664 </r>
       <r>   -14.3285     8.1775    68.4442 </r>
       <r>   -14.1967     0.3657    68.4924 </r>
       <r>   -14.0649     4.6437    69.1044 </r>
       <r>   -13.9331     7.4208    70.0825 </r>
       <r>   -13.8013    15.6490    72.1450 </r>
       <r>   -13.6695    21.2933    74.9514 </r>
       <r>   -13.5377     1.5670    75.1579 </r>
       <r>   -13.4059     2.9947    75.5526 </r>
       <r>   -13.2741     0.1972    75.5786 </r>
       <r>   -13.1423    10.0316    76.9007 </r>
       <r>   -13.0105    13.8354    78.7242 </r>
       <r>   -12.8787    19.9623    81.3552 </r>
       <r>   -12.7470     3.2063    81.7778 </r>
       <r>   -12.6152     2.3049    82.0815 </r>
       <r>   -12.4834    19.0746    84.5956 </r>
       <r>   -12.3516    10.9577    86.0398 </r>
       <r>   -12.2198     4.1635    86.5885 </r>
       <r>   -12.0880     2.1158    86.8674 </r>
       <r>   -11.9562    13.2827    88.6180 </r>
       <r>   -11.8244     2.4258    88.9377 </r>
       <r>   -11.6926    13.9629    90.7780 </r>
       <r>   -11.5608    19.1238    93.2985 </r>
       <r>   -11.4290    14.1910    95.1688 </r>
       <r>   -11.2972     7.7396    96.1889 </r>
       <r>   -11.1654     6.4677    97.0413 </r>
       <r>   -11.0336     8.9107    98.2157 </r>
       <r>   -10.9018     9.9209    99.5233 </r>
       <r>   -10.7700    19.4751   102.0901 </r>
       <r>   -10.6382     1.6082   102.3020 </r>
       <r>   -10.5064    19.4582   104.8666 </r>
       <r>   -10.3746     5.4432   105.5840 </r>
       <r>   -10.2428    20.4701   108.2819 </r>
       <r>   -10.1110    27.7699   111.9419 </r>
       <r>    -9.9792    20.0579   114.5855 </r>
       <r>    -9.8474    11.4759   116.0980 </r>
       <r>    -9.7156    19.4434   118.6606 </r>
       <r>    -9.5838    24.8718   121.9387 </r>
       <r>    -9.4520    23.7517   125.0691 </r>
       <r>    -9.3202    24.8211   128.3405 </r>
       <r>    -9.1884    24.6681   131.5917 </r>
       <r>    -9.0566    27.7292   135.2464 </r>
       <r>    -8.9248    20.4285   137.9388 </r>
       <r>    -8.7930    20.5582   140.6483 </r>
       <r>    -8.6612    19.3115   143.1936 </r>
       <r>    -8.5294    20.0700   145.8387 </r>
       <r>    -8.3976    15.5140   147.8835 </r>
       <r>    -8.2658    15.9633   149.9874 </r>
       <r>    -8.1340    14.2388   151.8640 </r>
       <r>    -8.0022    29.8284   155.7954 </r>
       <r>    -7.8704    16.3730   157.9533 </r>
       <r>    -7.7386    18.5007   160.3917 </r>
       <r>    -7.6068     6.7002   161.2747 </r>
       <r>    -7.4750     3.8227   161.7785 </r>
       <r>    -7.3432    13.0478   163.4982 </r>
       <r>    -7.2114    33.3175   167.8894 </r>
       <r>    -7.0796    18.9763   170.3905 </r>
       <r>    -6.9478     2.8427   170.7651 </r>
       <r>    -6.8160    20.5890   173.4787 </r>
       <r>    -6.6842    11.0571   174.9360 </r>
       <r>    -6.5524    17.0933   177.1889 </r>
       <r>    -6.4206     7.5314   178.1815 </r>
       <r>    -6.2888    11.7781   179.7338 </r>
       <r>    -6.1570    15.2896   181.7490 </r>
       <r>    -6.0252    14.4593   183.6547 </r>
       <r>    -5.8934    18.1700   186.0494 </r>
       <r>    -5.7616     9.1174   187.2511 </r>
       <r>    -5.6299    13.9138   189.0849 </r>
       <r>    -5.4981     4.0264   189.6156 </r>
       <r>    -5.3663     7.1853   190.5626 </r>
       <r>    -5.2345     9.3724   191.7979 </r>
       <r>    -5.1027    10.5999   193.1949 </r>
       <r>    -4.9709    16.3931   195.3555 </r>
       <r>    -4.8391    18.3755   197.7774 </r>
       <r>    -4.7073     3.2454   198.2051 </r>
       <r>    -4.5755     0.1300   198.2222 </r>
       <r>    -4.4437     0.0000   198.2222 </r>
       <r>    -4.3119     1.7336   198.4507 </r>
       <r>    -4.1801    17.4902   200.7559 </r>
       <r>    -4.0483     6.0649   201.5552 </r>
       <r>    -3.9165     0.0024   201.5556 </r>
       <r>    -3.7847     0.3544   201.6023 </r>
       <r>    -3.6529     2.9953   201.9970 </r>
       <r>    -3.5211     0.1352   202.0149 </r>
       <r>    -3.3893     4.0403   202.5474 </r>
       <r>    -3.2575    12.3254   204.1718 </r>
       <r>    -3.1257    10.3623   205.5376 </r>
       <r>    -2.9939     3.5289   206.0027 </r>
       <r>    -2.8621     2.0309   206.2703 </r>
       <r>    -2.7303     9.5360   207.5272 </r>
       <r>    -2.5985     0.2155   207.5556 </r>
       <r>    -2.4667     0.0379   207.5606 </r>
       <r>    -2.3349     3.0869   207.9674 </r>
       <r>    -2.2031     2.6455   208.3161 </r>
       <r>    -2.0713     0.9739   208.4444 </r>
       <r>    -1.9395     0.0000   208.4444 </r>
       <r>    -1.8077     0.0000   208.4444 </r>
       <r>    -1.6759     0.0759   208.4545 </r>
       <r>    -1.5441     9.0905   209.6526 </r>
       <r>    -1.4123    11.7093   211.1958 </r>
       <r>    -1.2805     4.4151   211.7777 </r>
       <r>    -1.1487     0.0003   211.7778 </r>
       <r>    -1.0169     0.7564   211.8775 </r>
       <r>    -0.8851     9.4719   213.1259 </r>
       <r>    -0.7533    24.0403   216.2943 </r>
       <r>    -0.6215    18.6209   218.7485 </r>
       <r>    -0.4897     5.7203   219.5025 </r>
       <r>    -0.3579     0.4143   219.5571 </r>
       <r>    -0.2261     3.9629   220.0794 </r>
       <r>    -0.0943    11.1568   221.5498 </r>
       <r>     0.0375    10.6643   222.9553 </r>
       <r>     0.1693     1.2494   223.1200 </r>
       <r>     0.3011    14.9723   225.0933 </r>
       <r>     0.4329     8.3834   226.1982 </r>
       <r>     0.5647     3.3007   226.6333 </r>
       <r>     0.6965     9.5934   227.8977 </r>
       <r>     0.8283    18.1739   230.2930 </r>
       <r>     0.9601     6.0686   231.0928 </r>
       <r>     1.0919    10.5167   232.4789 </r>
       <r>     1.2237    15.7358   234.5528 </r>
       <r>     1.3554     7.5692   235.5504 </r>
       <r>     1.4872    14.9013   237.5144 </r>
       <r>     1.6190    23.1163   240.5611 </r>
       <r>     1.7508    14.9531   242.5319 </r>
       <r>     1.8826    28.1356   246.2401 </r>
       <r>     2.0144     8.7693   247.3959 </r>
       <r>     2.1462    15.3690   249.4215 </r>
       <r>     2.2780    25.7494   252.8152 </r>
       <r>     2.4098    29.2420   256.6692 </r>
       <r>     2.5416     8.5185   257.7920 </r>
       <r>     2.6734     5.9503   258.5762 </r>
       <r>     2.8052     8.6837   259.7207 </r>
       <r>     2.9370     5.6643   260.4672 </r>
       <r>     3.0688     9.0529   261.6604 </r>
       <r>     3.2006     2.6272   262.0066 </r>
       <r>     3.3324     4.9609   262.6605 </r>
       <r>     3.4642     0.0474   262.6667 </r>
       <r>     3.5960     2.7761   263.0326 </r>
       <r>     3.7278     3.9653   263.5552 </r>
       <r>     3.8596     0.0024   263.5556 </r>
       <r>     3.9914     0.0000   263.5556 </r>
       <r>     4.1232     0.2955   263.5945 </r>
       <r>     4.2550     3.0469   263.9961 </r>
       <r>     4.3868     0.0298   264.0000 </r>
       <r>     4.5186     0.0000   264.0000 </r>
       <r>     4.6504     0.0000   264.0000 </r>
       <r>     4.7822     0.0000   264.0000 </r>
       <r>     4.9140     0.0000   264.0000 </r>
       <r>     5.0458     0.0000   264.0000 </r>
       <r>     5.1776     0.0000   264.0000 </r>
       <r>     5.3094     0.0000   264.0000 </r>
       <r>     5.4412     0.0000   264.0000 </r>
       <r>     5.5730     0.0000   264.0000 </r>
       <r>     5.7048     0.0000   264.0000 </r>
       <r>     5.8366     0.0000   264.0000 </r>
       <r>     5.9684     0.0000   264.0000 </r>
      </set>
     </set>
    </array>
   </total>
  </dos>
 </calculation>
 <structure name="finalpos" >
  <crystal>
   <varray name="basis" >
    <v>      12.30000019       0.00000000       0.00000000 </v>
    <v>       6.15000080      10.65211222       0.00000000 </v>
    <v>       0.00000000       0.00000000      20.00000000 </v>
   </varray>
   <i name="volume">   2620.41964732 </i>
   <varray name="rec_basis" >
    <v>       0.08130081      -0.04693905       0.00000000 </v>
    <v>       0.00000000       0.09387809       0.00000000 </v>
    <v>       0.00000000       0.00000000       0.05000000 </v>
   </varray>
  </crystal>
  <varray name="positions" >
   <v>       0.00000000       0.00000000       0.41799748 </v>
   <v>       0.20000000       0.00000000       0.41799748 </v>
   <v>       0.40000000       0.00000000       0.41799748 </v>
   <v>       0.60000000       0.00000000       0.41799748 </v>
   <v>       0.80000000       0.00000000       0.41799748 </v>
   <v>       0.00000000       0.20000000       0.41799748 </v>
   <v>       0.20000000       0.20000000       0.41799748 </v>
   <v>       0.40000000       0.20000000       0.41799748 </v>
   <v>       0.60000000       0.20000000       0.41799748 </v>
   <v>       0.80000000       0.20000000       0.41799748 </v>
   <v>       0.00000000       0.40000000       0.41799748 </v>
   <v>       0.20000000       0.40000000       0.41799748 </v>
   <v>       0.40000000       0.40000000       0.41799748 </v>
   <v>       0.60000000       0.40000000       0.41799748 </v>
   <v>       0.80000000       0.40000000       0.41799748 </v>
   <v>       0.00000000       0.60000000       0.41799748 </v>
   <v>       0.20000000       0.60000000       0.41799748 </v>
   <v>       0.40000000       0.60000000       0.41799748 </v>
   <v>       0.60000000       0.60000000       0.41799748 </v>
   <v>       0.80000000       0.60000000       0.41799748 </v>
   <v>       0.00000000       0.80000000       0.41799748 </v>
   <v>       0.20000000       0.80000000       0.41799748 </v>
   <v>       0.40000000       0.80000000       0.41799748 </v>
   <v>       0.60000000       0.80000000       0.41799748 </v>
   <v>       0.80000000       0.80000000       0.41799748 </v>
   <v>       0.06666667       0.06666660       0.41800609 </v>
   <v>       0.26666667       0.06666660       0.41800609 </v>
   <v>       0.46666667       0.06666660       0.41800609 </v>
   <v>       0.66666667       0.06666660       0.41800609 </v>
   <v>       0.86666667       0.06666660       0.41800609 </v>
   <v>       0.06666667       0.26666660       0.41800609 </v>
   <v>       0.26666667       0.26666660       0.41800609 </v>
   <v>       0.46666667       0.26747961       0.41800609 </v>
   <v>       0.66666667       0.26666660       0.41800609 </v>
   <v>       0.86666667       0.26666660       0.41800609 </v>
   <v>       0.06666667       0.46666660       0.41800609 </v>
   <v>       0.26666667       0.46666660       0.41800609 </v>
   <v>       0.46666667       0.46666660       0.41800609 </v>
   <v>       0.66666667       0.46666660       0.41800609 </v>
   <v>       0.86666667       0.46666660       0.41800609 </v>
   <v>       0.06666667       0.66666660       0.41800609 </v>
   <v>       0.26666667       0.66666660       0.41800609 </v>
   <v>       0.46666667       0.66666660       0.41800609 </v>
   <v>       0.66666667       0.66666660       0.41800609 </v>
   <v>       0.86666667       0.66666660       0.41800609 </v>
   <v>       0.06666667       0.86666660       0.41800609 </v>
   <v>       0.26666667       0.86666660       0.41800609 </v>
   <v>       0.46666667       0.86666660       0.41800609 </v>
   <v>       0.66666667       0.86666660       0.41800609 </v>
   <v>       0.86666667       0.86666660       0.41800609 </v>
   <v>       0.40000000       0.40000000       0.46800609 </v>
  </varray>
  <varray name="velocities" >
   <v>       0.00000000       0.00000000       0.00000000 </v>
   <v>       0.00000000       0.00000000       0.00000000 </v>
   <v>       0.00000000       0.00000000       0.00000000 </v>
   <v>       0.00000000       0.00000000       0.00000000 </v>
   <v>       0.00000000       0.00000000       0.00000000 </v>
   <v>       0.00000000       0.00000000       0.00000000 </v>
   <v>       0.00000000       0.00000000       0.00000000 </v>
   <v>       0.00000000       0.00000000       0.00000000 </v>
   <v>       0.00000000       0.00000000       0.00000000 </v>
   <v>       0.00000000       0.00000000       0.00000000 </v>
   <v>       0.00000000       0.00000000       0.00000000 </v>
   <v>       0.00000000       0.00000000       0.00000000 </v>
   <v>       0.00000000       0.00000000       0.00000000 </v>
   <v>       0.00000000       0.00000000       0.00000000 </v>
   <v>       0.00000000       0.00000000       0.00000000 </v>
   <v>       0.00000000       0.00000000       0.00000000 </v>
   <v>       0.00000000       0.00000000       0.00000000 </v>
   <v>       0.00000000       0.00000000       0.00000000 </v>
   <v>       0.00000000       0.00000000       0.00000000 </v>
   <v>       0.00000000       0.00000000       0.00000000 </v>
   <v>       0.00000000       0.00000000       0.00000000 </v>
   <v>       0.00000000       0.00000000       0.00000000 </v>
   <v>       0.00000000       0.00000000       0.00000000 </v>
   <v>       0.00000000       0.00000000       0.00000000 </v>
   <v>       0.00000000       0.00000000       0.00000000 </v>
   <v>       0.00000000       0.00000000       0.00000000 </v>
   <v>       0.00000000       0.00000000       0.00000000 </v>
   <v>       0.00000000       0.00000000       0.00000000 </v>
   <v>       0.00000000       0.00000000       0.00000000 </v>
   <v>       0.00000000       0.00000000       0.00000000 </v>
   <v>       0.00000000       0.00000000       0.00000000 </v>
   <v>       0.00000000       0.00000000       0.00000000 </v>
   <v>       0.00000000       0.00000000       0.00000000 </v>
   <v>       0.00000000       0.00000000       0.00000000 </v>
   <v>       0.00000000       0.00000000       0.00000000 </v>
   <v>       0.00000000       0.00000000       0.00000000 </v>
   <v>       0.00000000       0.00000000       0.00000000 </v>
   <v>       0.00000000       0.00000000       0.00000000 </v>
   <v>       0.00000000       0.00000000       0.00000000 </v>
   <v>       0.00000000       0.00000000       0.00000000 </v>
   <v>       0.00000000       0.00000000       0.00000000 </v>
   <v>       0.00000000       0.00000000       0.00000000 </v>
   <v>       0.00000000       0.00000000       0.00000000 </v>
   <v>       0.00000000       0.00000000       0.00000000 </v>
   <v>       0.00000000       0.00000000       0.00000000 </v>
   <v>       0.00000000       0.00000000       0.00000000 </v>
   <v>       0.00000000       0.00000000       0.00000000 </v>
   <v>       0.00000000       0.00000000       0.00000000 </v>
   <v>       0.00000000       0.00000000       0.00000000 </v>
   <v>       0.00000000       0.00000000       0.00000000 </v>
   <v>       0.00000000       0.00000000       0.00000000 </v>
  </varray>
 </structure>
</modeling>
