  51  51   0   0
  0.5138078E+02  0.1230000E-08  0.1230000E-08  0.2000000E-08  0.5000000E-15
  1.000000000000000E-004
  CAR 
                                         
      5.97721552    -33.50014675  301     -3.01571490      1.00000000
    -33.500  0.0000E+00  0.0000E+00
    -33.369  0.0000E+00  0.0000E+00
    -33.237  0.0000E+00  0.0000E+00
    -33.105  0.0000E+00  0.0000E+00
    -32.974  0.0000E+00  0.0000E+00
    -32.842  0.0000E+00  0.0000E+00
    -32.711  0.0000E+00  0.0000E+00
    -32.579  0.0000E+00  0.0000E+00
    -32.447  0.0000E+00  0.0000E+00
    -32.316  0.0000E+00  0.0000E+00
    -32.184  0.0000E+00  0.0000E+00
    -32.053  0.0000E+00  0.0000E+00
    -31.921  0.8485E-08  0.1116E-08
    -31.789  0.1352E+00  0.1780E-01
    -31.658  0.1372E+02  0.1824E+01
    -31.526  0.1340E+01  0.2000E+01
    -31.395  0.2959E-05  0.2000E+01
    -31.263  0.0000E+00  0.2000E+01
    -31.132  0.0000E+00  0.2000E+01
    -31.000  0.0000E+00  0.2000E+01
    -30.868  0.0000E+00  0.2000E+01
    -30.737  0.0000E+00  0.2000E+01
    -30.605  0.0000E+00  0.2000E+01
    -30.474  0.0000E+00  0.2000E+01
    -30.342  0.0000E+00  0.2000E+01
    -30.210  0.0000E+00  0.2000E+01
    -30.079  0.0000E+00  0.2000E+01
    -29.947  0.0000E+00  0.2000E+01
    -29.816  0.0000E+00  0.2000E+01
    -29.684  0.0000E+00  0.2000E+01
    -29.552  0.0000E+00  0.2000E+01
    -29.421  0.0000E+00  0.2000E+01
    -29.289  0.0000E+00  0.2000E+01
    -29.158  0.0000E+00  0.2000E+01
    -29.026  0.0000E+00  0.2000E+01
    -28.894  0.0000E+00  0.2000E+01
    -28.763  0.0000E+00  0.2000E+01
    -28.631  0.0000E+00  0.2000E+01
    -28.500  0.0000E+00  0.2000E+01
    -28.368  0.0000E+00  0.2000E+01
    -28.236  0.0000E+00  0.2000E+01
    -28.105  0.0000E+00  0.2000E+01
    -27.973  0.0000E+00  0.2000E+01
    -27.842  0.0000E+00  0.2000E+01
    -27.710  0.0000E+00  0.2000E+01
    -27.579  0.0000E+00  0.2000E+01
    -27.447  0.0000E+00  0.2000E+01
    -27.315  0.0000E+00  0.2000E+01
    -27.184  0.0000E+00  0.2000E+01
    -27.052  0.0000E+00  0.2000E+01
    -26.921  0.0000E+00  0.2000E+01
    -26.789  0.0000E+00  0.2000E+01
    -26.657  0.0000E+00  0.2000E+01
    -26.526  0.0000E+00  0.2000E+01
    -26.394  0.0000E+00  0.2000E+01
    -26.263  0.0000E+00  0.2000E+01
    -26.131  0.0000E+00  0.2000E+01
    -25.999  0.0000E+00  0.2000E+01
    -25.868  0.0000E+00  0.2000E+01
    -25.736  0.0000E+00  0.2000E+01
    -25.605  0.0000E+00  0.2000E+01
    -25.473  0.0000E+00  0.2000E+01
    -25.341  0.0000E+00  0.2000E+01
    -25.210  0.0000E+00  0.2000E+01
    -25.078  0.0000E+00  0.2000E+01
    -24.947  0.0000E+00  0.2000E+01
    -24.815  0.0000E+00  0.2000E+01
    -24.684  0.0000E+00  0.2000E+01
    -24.552  0.0000E+00  0.2000E+01
    -24.420  0.0000E+00  0.2000E+01
    -24.289  0.0000E+00  0.2000E+01
    -24.157  0.0000E+00  0.2000E+01
    -24.026  0.0000E+00  0.2000E+01
    -23.894  0.0000E+00  0.2000E+01
    -23.762  0.0000E+00  0.2000E+01
    -23.631  0.0000E+00  0.2000E+01
    -23.499  0.0000E+00  0.2000E+01
    -23.368  0.0000E+00  0.2000E+01
    -23.236  0.0000E+00  0.2000E+01
    -23.104  0.0000E+00  0.2000E+01
    -22.973  0.0000E+00  0.2000E+01
    -22.841  0.0000E+00  0.2000E+01
    -22.710  0.0000E+00  0.2000E+01
    -22.578  0.0000E+00  0.2000E+01
    -22.446  0.6542E-06  0.2000E+01
    -22.315  0.1899E+00  0.2025E+01
    -22.183  0.7275E+01  0.2982E+01
    -22.052  0.7409E+01  0.3957E+01
    -21.920  0.4476E+01  0.4546E+01
    -21.789  0.1148E+02  0.6057E+01
    -21.657  0.6875E+01  0.6962E+01
    -21.525  0.5665E+01  0.7707E+01
    -21.394  0.1454E+02  0.9621E+01
    -21.262  0.2901E+01  0.1000E+02
    -21.131  0.5397E+01  0.1071E+02
    -20.999  0.9931E+01  0.1202E+02
    -20.867  0.1240E+02  0.1365E+02
    -20.736  0.8425E+01  0.1476E+02
    -20.604  0.6045E+01  0.1556E+02
    -20.473  0.8590E+00  0.1567E+02
    -20.341  0.1396E+02  0.1751E+02
    -20.209  0.3807E+01  0.1801E+02
    -20.078  0.1826E+02  0.2041E+02
    -19.946  0.3269E+00  0.2045E+02
    -19.815  0.5296E+01  0.2115E+02
    -19.683  0.1456E+02  0.2307E+02
    -19.551  0.8256E+01  0.2415E+02
    -19.420  0.3956E+01  0.2467E+02
    -19.288  0.9704E+01  0.2595E+02
    -19.157  0.1189E+02  0.2751E+02
    -19.025  0.8829E+01  0.2868E+02
    -18.894  0.3556E+01  0.2914E+02
    -18.762  0.4677E+01  0.2976E+02
    -18.630  0.7858E+01  0.3079E+02
    -18.499  0.1191E+02  0.3236E+02
    -18.367  0.1267E+02  0.3403E+02
    -18.236  0.6537E+01  0.3489E+02
    -18.104  0.7842E+01  0.3592E+02
    -17.972  0.1276E+02  0.3760E+02
    -17.841  0.4898E+01  0.3824E+02
    -17.709  0.3203E+01  0.3867E+02
    -17.578  0.9107E+01  0.3986E+02
    -17.446  0.1379E+02  0.4168E+02
    -17.314  0.5980E+01  0.4247E+02
    -17.183  0.1911E+02  0.4498E+02
    -17.051  0.6415E+01  0.4582E+02
    -16.920  0.3231E+01  0.4625E+02
    -16.788  0.9486E+01  0.4750E+02
    -16.656  0.5316E+01  0.4820E+02
    -16.525  0.7837E+01  0.4923E+02
    -16.393  0.8652E+01  0.5037E+02
    -16.262  0.3018E+01  0.5076E+02
    -16.130  0.9830E+01  0.5206E+02
    -15.999  0.6740E+01  0.5294E+02
    -15.867  0.1239E+02  0.5457E+02
    -15.735  0.1075E+02  0.5599E+02
    -15.604  0.2604E+01  0.5633E+02
    -15.472  0.4700E+01  0.5695E+02
    -15.341  0.2346E+01  0.5726E+02
    -15.209  0.1078E+02  0.5868E+02
    -15.077  0.2216E+02  0.6159E+02
    -14.946  0.4115E+01  0.6214E+02
    -14.814  0.1235E+02  0.6376E+02
    -14.683  0.9252E+01  0.6498E+02
    -14.551  0.6155E+01  0.6579E+02
    -14.419  0.1796E+02  0.6815E+02
    -14.288  0.2217E+01  0.6844E+02
    -14.156  0.2170E+01  0.6873E+02
    -14.025  0.3111E+01  0.6914E+02
    -13.893  0.1232E+02  0.7076E+02
    -13.761  0.1849E+02  0.7319E+02
    -13.630  0.1401E+02  0.7504E+02
    -13.498  0.2159E+01  0.7532E+02
    -13.367  0.1781E+01  0.7556E+02
    -13.235  0.1143E+01  0.7571E+02
    -13.104  0.1263E+02  0.7737E+02
    -12.972  0.1377E+02  0.7918E+02
    -12.840  0.1938E+02  0.8173E+02
    -12.709  0.3635E+00  0.8178E+02
    -12.577  0.8207E+01  0.8286E+02
    -12.446  0.1521E+02  0.8486E+02
    -12.314  0.1035E+02  0.8622E+02
    -12.182  0.3321E+01  0.8666E+02
    -12.051  0.5041E+01  0.8732E+02
    -11.919  0.1022E+02  0.8867E+02
    -11.788  0.5333E+01  0.8937E+02
    -11.656  0.1806E+02  0.9174E+02
    -11.524  0.1596E+02  0.9384E+02
    -11.393  0.1234E+02  0.9547E+02
    -11.261  0.9211E+01  0.9668E+02
    -11.130  0.5582E+01  0.9741E+02
    -10.998  0.6299E+01  0.9824E+02
    -10.866  0.1602E+02  0.1004E+03
    -10.735  0.1406E+02  0.1022E+03
    -10.603  0.3596E+01  0.1027E+03
    -10.472  0.1980E+02  0.1053E+03
    -10.340  0.3654E+01  0.1058E+03
    -10.209  0.2832E+02  0.1095E+03
    -10.077  0.2333E+02  0.1126E+03
     -9.945  0.1637E+02  0.1147E+03
     -9.814  0.1815E+02  0.1171E+03
     -9.682  0.1567E+02  0.1192E+03
     -9.551  0.3021E+02  0.1231E+03
     -9.419  0.1839E+02  0.1256E+03
     -9.287  0.2891E+02  0.1294E+03
     -9.156  0.2270E+02  0.1323E+03
     -9.024  0.2903E+02  0.1362E+03
     -8.893  0.2082E+02  0.1389E+03
     -8.761  0.1438E+02  0.1408E+03
     -8.629  0.2671E+02  0.1443E+03
     -8.498  0.1535E+02  0.1463E+03
     -8.366  0.1674E+02  0.1485E+03
     -8.235  0.1464E+02  0.1505E+03
     -8.103  0.1868E+02  0.1529E+03
     -7.971  0.2715E+02  0.1565E+03
     -7.840  0.1632E+02  0.1586E+03
     -7.708  0.1371E+02  0.1604E+03
     -7.577  0.9062E+01  0.1616E+03
     -7.445  0.1137E+01  0.1618E+03
     -7.313  0.2224E+02  0.1647E+03
     -7.182  0.3126E+02  0.1688E+03
     -7.050  0.1222E+02  0.1704E+03
     -6.919  0.6916E+01  0.1713E+03
     -6.787  0.1711E+02  0.1736E+03
     -6.656  0.1406E+02  0.1754E+03
     -6.524  0.1511E+02  0.1774E+03
     -6.392  0.7014E+01  0.1784E+03
     -6.261  0.1315E+02  0.1801E+03
     -6.129  0.1518E+02  0.1821E+03
     -5.998  0.1297E+02  0.1838E+03
     -5.866  0.2155E+02  0.1866E+03
     -5.734  0.7467E+01  0.1876E+03
     -5.603  0.1310E+02  0.1893E+03
     -5.471  0.2873E+01  0.1897E+03
     -5.340  0.8673E+01  0.1909E+03
     -5.208  0.7701E+01  0.1919E+03
     -5.076  0.1276E+02  0.1935E+03
     -4.945  0.2052E+02  0.1962E+03
     -4.813  0.1180E+02  0.1978E+03
     -4.682  0.3134E+01  0.1982E+03
     -4.550  0.6385E-01  0.1982E+03
     -4.418  0.1778E-03  0.1982E+03
     -4.287  0.4633E+01  0.1988E+03
     -4.155  0.1673E+02  0.2010E+03
     -4.024  0.3971E+01  0.2016E+03
     -3.892  0.3356E-03  0.2016E+03
     -3.761  0.5151E+00  0.2016E+03
     -3.629  0.2851E+01  0.2020E+03
     -3.497  0.5041E+00  0.2021E+03
     -3.366  0.4618E+01  0.2027E+03
     -3.234  0.1217E+02  0.2043E+03
     -3.103  0.1115E+02  0.2057E+03
     -2.971  0.2070E+01  0.2060E+03
     -2.839  0.3206E+01  0.2064E+03
     -2.708  0.8472E+01  0.2076E+03
     -2.576  0.3444E-01  0.2076E+03
     -2.445  0.1843E+00  0.2076E+03
     -2.313  0.3157E+01  0.2080E+03
     -2.181  0.3042E+01  0.2084E+03
     -2.050  0.3717E+00  0.2084E+03
     -1.918  0.1265E-05  0.2084E+03
     -1.787  0.1961E-06  0.2084E+03
     -1.655  0.3833E+00  0.2085E+03
     -1.523  0.9686E+01  0.2098E+03
     -1.392  0.1330E+02  0.2115E+03
     -1.260  0.1966E+01  0.2118E+03
     -1.129  0.2239E-03  0.2118E+03
     -0.997  0.1610E+01  0.2120E+03
     -0.866  0.1250E+02  0.2136E+03
     -0.734  0.2212E+02  0.2165E+03
     -0.602  0.1768E+02  0.2189E+03
     -0.471  0.5064E+01  0.2195E+03
     -0.339  0.1914E+00  0.2196E+03
     -0.208  0.5120E+01  0.2202E+03
     -0.076  0.1131E+02  0.2217E+03
      0.056  0.1014E+02  0.2231E+03
      0.187  0.6622E+00  0.2231E+03
      0.319  0.1715E+02  0.2254E+03
      0.450  0.6927E+01  0.2263E+03
      0.582  0.3269E+01  0.2267E+03
      0.714  0.1267E+02  0.2284E+03
      0.845  0.1528E+02  0.2304E+03
      0.977  0.6479E+01  0.2313E+03
      1.108  0.1154E+02  0.2328E+03
      1.240  0.1401E+02  0.2346E+03
      1.372  0.9062E+01  0.2358E+03
      1.503  0.1513E+02  0.2378E+03
      1.635  0.2277E+02  0.2408E+03
      1.766  0.1639E+02  0.2430E+03
      1.898  0.2655E+02  0.2465E+03
      2.029  0.8236E+01  0.2476E+03
      2.161  0.1656E+02  0.2497E+03
      2.293  0.2651E+02  0.2532E+03
      2.424  0.2836E+02  0.2570E+03
      2.556  0.6593E+01  0.2578E+03
      2.687  0.6327E+01  0.2587E+03
      2.819  0.9501E+01  0.2599E+03
      2.951  0.4576E+01  0.2605E+03
      3.082  0.9254E+01  0.2617E+03
      3.214  0.2974E+01  0.2621E+03
      3.345  0.4190E+01  0.2627E+03
      3.477  0.1787E-01  0.2627E+03
      3.609  0.3686E+01  0.2632E+03
      3.740  0.3067E+01  0.2636E+03
      3.872  0.6444E-03  0.2636E+03
      4.003  0.6530E-06  0.2636E+03
      4.135  0.2971E+00  0.2636E+03
      4.267  0.3050E+01  0.2640E+03
      4.398  0.3016E-01  0.2640E+03
      4.530  0.1901E-08  0.2640E+03
      4.661  0.0000E+00  0.2640E+03
      4.793  0.0000E+00  0.2640E+03
      4.924  0.0000E+00  0.2640E+03
      5.056  0.0000E+00  0.2640E+03
      5.188  0.0000E+00  0.2640E+03
      5.319  0.0000E+00  0.2640E+03
      5.451  0.0000E+00  0.2640E+03
      5.582  0.0000E+00  0.2640E+03
      5.714  0.0000E+00  0.2640E+03
      5.846  0.0000E+00  0.2640E+03
      5.977  0.0000E+00  0.2640E+03
