  51  51   0   0
  0.5138078E+02  0.1230000E-08  0.1230000E-08  0.2000000E-08  0.5000000E-15
  1.000000000000000E-004
  CAR 
                                         
      5.97509533    -33.53568904  301     -3.01756801      1.00000000
    -33.536  0.0000E+00  0.0000E+00
    -33.404  0.0000E+00  0.0000E+00
    -33.272  0.0000E+00  0.0000E+00
    -33.141  0.0000E+00  0.0000E+00
    -33.009  0.0000E+00  0.0000E+00
    -32.877  0.0000E+00  0.0000E+00
    -32.745  0.0000E+00  0.0000E+00
    -32.614  0.0000E+00  0.0000E+00
    -32.482  0.0000E+00  0.0000E+00
    -32.350  0.0000E+00  0.0000E+00
    -32.219  0.0000E+00  0.0000E+00
    -32.087  0.0000E+00  0.0000E+00
    -31.955  0.8209E-08  0.1081E-08
    -31.824  0.1344E+00  0.1770E-01
    -31.692  0.1372E+02  0.1824E+01
    -31.560  0.1336E+01  0.2000E+01
    -31.428  0.2890E-05  0.2000E+01
    -31.297  0.0000E+00  0.2000E+01
    -31.165  0.0000E+00  0.2000E+01
    -31.033  0.0000E+00  0.2000E+01
    -30.902  0.0000E+00  0.2000E+01
    -30.770  0.0000E+00  0.2000E+01
    -30.638  0.0000E+00  0.2000E+01
    -30.507  0.0000E+00  0.2000E+01
    -30.375  0.0000E+00  0.2000E+01
    -30.243  0.0000E+00  0.2000E+01
    -30.111  0.0000E+00  0.2000E+01
    -29.980  0.0000E+00  0.2000E+01
    -29.848  0.0000E+00  0.2000E+01
    -29.716  0.0000E+00  0.2000E+01
    -29.585  0.0000E+00  0.2000E+01
    -29.453  0.0000E+00  0.2000E+01
    -29.321  0.0000E+00  0.2000E+01
    -29.190  0.0000E+00  0.2000E+01
    -29.058  0.0000E+00  0.2000E+01
    -28.926  0.0000E+00  0.2000E+01
    -28.794  0.0000E+00  0.2000E+01
    -28.663  0.0000E+00  0.2000E+01
    -28.531  0.0000E+00  0.2000E+01
    -28.399  0.0000E+00  0.2000E+01
    -28.268  0.0000E+00  0.2000E+01
    -28.136  0.0000E+00  0.2000E+01
    -28.004  0.0000E+00  0.2000E+01
    -27.872  0.0000E+00  0.2000E+01
    -27.741  0.0000E+00  0.2000E+01
    -27.609  0.0000E+00  0.2000E+01
    -27.477  0.0000E+00  0.2000E+01
    -27.346  0.0000E+00  0.2000E+01
    -27.214  0.0000E+00  0.2000E+01
    -27.082  0.0000E+00  0.2000E+01
    -26.951  0.0000E+00  0.2000E+01
    -26.819  0.0000E+00  0.2000E+01
    -26.687  0.0000E+00  0.2000E+01
    -26.555  0.0000E+00  0.2000E+01
    -26.424  0.0000E+00  0.2000E+01
    -26.292  0.0000E+00  0.2000E+01
    -26.160  0.0000E+00  0.2000E+01
    -26.029  0.0000E+00  0.2000E+01
    -25.897  0.0000E+00  0.2000E+01
    -25.765  0.0000E+00  0.2000E+01
    -25.634  0.0000E+00  0.2000E+01
    -25.502  0.0000E+00  0.2000E+01
    -25.370  0.0000E+00  0.2000E+01
    -25.238  0.0000E+00  0.2000E+01
    -25.107  0.0000E+00  0.2000E+01
    -24.975  0.0000E+00  0.2000E+01
    -24.843  0.0000E+00  0.2000E+01
    -24.712  0.0000E+00  0.2000E+01
    -24.580  0.0000E+00  0.2000E+01
    -24.448  0.0000E+00  0.2000E+01
    -24.317  0.0000E+00  0.2000E+01
    -24.185  0.0000E+00  0.2000E+01
    -24.053  0.0000E+00  0.2000E+01
    -23.921  0.0000E+00  0.2000E+01
    -23.790  0.0000E+00  0.2000E+01
    -23.658  0.0000E+00  0.2000E+01
    -23.526  0.0000E+00  0.2000E+01
    -23.395  0.0000E+00  0.2000E+01
    -23.263  0.0000E+00  0.2000E+01
    -23.131  0.0000E+00  0.2000E+01
    -22.999  0.0000E+00  0.2000E+01
    -22.868  0.0000E+00  0.2000E+01
    -22.736  0.0000E+00  0.2000E+01
    -22.604  0.0000E+00  0.2000E+01
    -22.473  0.1011E-07  0.2000E+01
    -22.341  0.4082E-01  0.2005E+01
    -22.209  0.4465E+01  0.2593E+01
    -22.078  0.9205E+01  0.3806E+01
    -21.946  0.4859E+01  0.4446E+01
    -21.814  0.1069E+02  0.5853E+01
    -21.682  0.5463E+01  0.6573E+01
    -21.551  0.7775E+01  0.7597E+01
    -21.419  0.1285E+02  0.9290E+01
    -21.287  0.5388E+01  0.9999E+01
    -21.156  0.3854E+01  0.1051E+02
    -21.024  0.8996E+01  0.1169E+02
    -20.892  0.1113E+02  0.1316E+02
    -20.761  0.9825E+01  0.1445E+02
    -20.629  0.8352E+01  0.1555E+02
    -20.497  0.1880E+00  0.1558E+02
    -20.365  0.1309E+02  0.1730E+02
    -20.234  0.4059E+01  0.1784E+02
    -20.102  0.1850E+02  0.2027E+02
    -19.970  0.1327E+01  0.2045E+02
    -19.839  0.3652E+01  0.2093E+02
    -19.707  0.1382E+02  0.2275E+02
    -19.575  0.8449E+01  0.2386E+02
    -19.444  0.6117E+01  0.2467E+02
    -19.312  0.7133E+01  0.2561E+02
    -19.180  0.1388E+02  0.2743E+02
    -19.048  0.7486E+01  0.2842E+02
    -18.917  0.4615E+01  0.2903E+02
    -18.785  0.5321E+01  0.2973E+02
    -18.653  0.5214E+01  0.3041E+02
    -18.522  0.1385E+02  0.3224E+02
    -18.390  0.1140E+02  0.3374E+02
    -18.258  0.8661E+01  0.3488E+02
    -18.126  0.4824E+01  0.3552E+02
    -17.995  0.1534E+02  0.3754E+02
    -17.863  0.4754E+01  0.3816E+02
    -17.731  0.3747E+01  0.3866E+02
    -17.600  0.6024E+01  0.3945E+02
    -17.468  0.1553E+02  0.4149E+02
    -17.336  0.4329E+01  0.4206E+02
    -17.205  0.2125E+02  0.4486E+02
    -17.073  0.6888E+01  0.4577E+02
    -16.941  0.3435E+01  0.4622E+02
    -16.809  0.8877E+01  0.4739E+02
    -16.678  0.4062E+01  0.4793E+02
    -16.546  0.8846E+01  0.4909E+02
    -16.414  0.8933E+01  0.5027E+02
    -16.283  0.3113E+01  0.5068E+02
    -16.151  0.9513E+01  0.5193E+02
    -16.019  0.5754E+01  0.5269E+02
    -15.888  0.1295E+02  0.5439E+02
    -15.756  0.1192E+02  0.5596E+02
    -15.624  0.2068E+01  0.5624E+02
    -15.492  0.4226E+01  0.5679E+02
    -15.361  0.2779E+01  0.5716E+02
    -15.229  0.1021E+02  0.5850E+02
    -15.097  0.2209E+02  0.6141E+02
    -14.966  0.4765E+01  0.6204E+02
    -14.834  0.1148E+02  0.6355E+02
    -14.702  0.1035E+02  0.6492E+02
    -14.571  0.6422E+01  0.6576E+02
    -14.439  0.1568E+02  0.6783E+02
    -14.307  0.4687E+01  0.6844E+02
    -14.175  0.9789E+00  0.6857E+02
    -14.044  0.4129E+01  0.6912E+02
    -13.912  0.1022E+02  0.7046E+02
    -13.780  0.1675E+02  0.7267E+02
    -13.649  0.1771E+02  0.7500E+02
    -13.517  0.1831E+01  0.7524E+02
    -13.385  0.2376E+01  0.7556E+02
    -13.253  0.4954E+00  0.7562E+02
    -13.122  0.1113E+02  0.7709E+02
    -12.990  0.1401E+02  0.7893E+02
    -12.858  0.2064E+02  0.8165E+02
    -12.727  0.9757E+00  0.8178E+02
    -12.595  0.4878E+01  0.8242E+02
    -12.463  0.1758E+02  0.8474E+02
    -12.332  0.1082E+02  0.8616E+02
    -12.200  0.3637E+01  0.8664E+02
    -12.068  0.3233E+01  0.8707E+02
    -11.936  0.1208E+02  0.8866E+02
    -11.805  0.3699E+01  0.8914E+02
    -11.673  0.1620E+02  0.9128E+02
    -11.541  0.1759E+02  0.9359E+02
    -11.410  0.1341E+02  0.9536E+02
    -11.278  0.8622E+01  0.9649E+02
    -11.146  0.5499E+01  0.9722E+02
    -11.015  0.7653E+01  0.9823E+02
    -10.883  0.1299E+02  0.9994E+02
    -10.751  0.1696E+02  0.1022E+03
    -10.619  0.2293E+01  0.1025E+03
    -10.488  0.2026E+02  0.1051E+03
    -10.356  0.3928E+01  0.1057E+03
    -10.224  0.2494E+02  0.1089E+03
    -10.093  0.2522E+02  0.1123E+03
     -9.961  0.1815E+02  0.1147E+03
     -9.829  0.1484E+02  0.1166E+03
     -9.698  0.1739E+02  0.1189E+03
     -9.566  0.2801E+02  0.1226E+03
     -9.434  0.2048E+02  0.1253E+03
     -9.302  0.2761E+02  0.1289E+03
     -9.171  0.2321E+02  0.1320E+03
     -9.039  0.2898E+02  0.1358E+03
     -8.907  0.2011E+02  0.1384E+03
     -8.776  0.1724E+02  0.1407E+03
     -8.644  0.2383E+02  0.1439E+03
     -8.512  0.1713E+02  0.1461E+03
     -8.380  0.1651E+02  0.1483E+03
     -8.249  0.1502E+02  0.1503E+03
     -8.117  0.1653E+02  0.1524E+03
     -7.985  0.2809E+02  0.1561E+03
     -7.854  0.1645E+02  0.1583E+03
     -7.722  0.1613E+02  0.1604E+03
     -7.590  0.8153E+01  0.1615E+03
     -7.459  0.2102E+01  0.1618E+03
     -7.327  0.1800E+02  0.1642E+03
     -7.195  0.3221E+02  0.1684E+03
     -7.063  0.1541E+02  0.1704E+03
     -6.932  0.4840E+01  0.1711E+03
     -6.800  0.1891E+02  0.1736E+03
     -6.668  0.1269E+02  0.1752E+03
     -6.537  0.1603E+02  0.1773E+03
     -6.405  0.7131E+01  0.1783E+03
     -6.273  0.1267E+02  0.1799E+03
     -6.142  0.1521E+02  0.1819E+03
     -6.010  0.1362E+02  0.1837E+03
     -5.878  0.2042E+02  0.1864E+03
     -5.746  0.7615E+01  0.1874E+03
     -5.615  0.1386E+02  0.1893E+03
     -5.483  0.3060E+01  0.1897E+03
     -5.351  0.8108E+01  0.1907E+03
     -5.220  0.8420E+01  0.1918E+03
     -5.088  0.1194E+02  0.1934E+03
     -4.956  0.1852E+02  0.1959E+03
     -4.825  0.1474E+02  0.1978E+03
     -4.693  0.3189E+01  0.1982E+03
     -4.561  0.7998E-01  0.1982E+03
     -4.429  0.4355E-04  0.1982E+03
     -4.298  0.3137E+01  0.1986E+03
     -4.166  0.1732E+02  0.2009E+03
     -4.034  0.4854E+01  0.2016E+03
     -3.903  0.7916E-03  0.2016E+03
     -3.771  0.4756E+00  0.2016E+03
     -3.639  0.2885E+01  0.2020E+03
     -3.507  0.2857E+00  0.2020E+03
     -3.376  0.4434E+01  0.2026E+03
     -3.244  0.1229E+02  0.2042E+03
     -3.112  0.1088E+02  0.2057E+03
     -2.981  0.2557E+01  0.2060E+03
     -2.849  0.2602E+01  0.2064E+03
     -2.717  0.9076E+01  0.2075E+03
     -2.586  0.7275E-01  0.2076E+03
     -2.454  0.9761E-01  0.2076E+03
     -2.322  0.3172E+01  0.2080E+03
     -2.190  0.2891E+01  0.2084E+03
     -2.059  0.5884E+00  0.2084E+03
     -1.927  0.5279E-05  0.2084E+03
     -1.795  0.3972E-07  0.2084E+03
     -1.664  0.2030E+00  0.2085E+03
     -1.532  0.9542E+01  0.2097E+03
     -1.400  0.1271E+02  0.2114E+03
     -1.269  0.2855E+01  0.2118E+03
     -1.137  0.1479E-03  0.2118E+03
     -1.005  0.1306E+01  0.2119E+03
     -0.873  0.1121E+02  0.2134E+03
     -0.742  0.2268E+02  0.2164E+03
     -0.610  0.1834E+02  0.2188E+03
     -0.478  0.5289E+01  0.2195E+03
     -0.347  0.2578E+00  0.2196E+03
     -0.215  0.4681E+01  0.2202E+03
     -0.083  0.1119E+02  0.2217E+03
      0.048  0.1047E+02  0.2230E+03
      0.180  0.7905E+00  0.2231E+03
      0.312  0.1645E+02  0.2253E+03
      0.444  0.7296E+01  0.2263E+03
      0.575  0.3402E+01  0.2267E+03
      0.707  0.1136E+02  0.2282E+03
      0.839  0.1658E+02  0.2304E+03
      0.970  0.6208E+01  0.2312E+03
      1.102  0.1112E+02  0.2327E+03
      1.234  0.1471E+02  0.2346E+03
      1.366  0.8737E+01  0.2358E+03
      1.497  0.1478E+02  0.2377E+03
      1.629  0.2289E+02  0.2407E+03
      1.761  0.1581E+02  0.2428E+03
      1.892  0.2726E+02  0.2464E+03
      2.024  0.8485E+01  0.2475E+03
      2.156  0.1611E+02  0.2496E+03
      2.287  0.2618E+02  0.2531E+03
      2.419  0.2872E+02  0.2569E+03
      2.551  0.7090E+01  0.2578E+03
      2.683  0.6406E+01  0.2586E+03
      2.814  0.9161E+01  0.2598E+03
      2.946  0.4847E+01  0.2605E+03
      3.078  0.9289E+01  0.2617E+03
      3.209  0.2790E+01  0.2621E+03
      3.341  0.4462E+01  0.2627E+03
      3.473  0.2464E-01  0.2627E+03
      3.604  0.3436E+01  0.2631E+03
      3.736  0.3311E+01  0.2636E+03
      3.868  0.8673E-03  0.2636E+03
      4.000  0.6379E-06  0.2636E+03
      4.131  0.2962E+00  0.2636E+03
      4.263  0.3048E+01  0.2640E+03
      4.395  0.2997E-01  0.2640E+03
      4.526  0.1839E-08  0.2640E+03
      4.658  0.0000E+00  0.2640E+03
      4.790  0.0000E+00  0.2640E+03
      4.921  0.0000E+00  0.2640E+03
      5.053  0.0000E+00  0.2640E+03
      5.185  0.0000E+00  0.2640E+03
      5.317  0.0000E+00  0.2640E+03
      5.448  0.0000E+00  0.2640E+03
      5.580  0.0000E+00  0.2640E+03
      5.712  0.0000E+00  0.2640E+03
      5.843  0.0000E+00  0.2640E+03
      5.975  0.0000E+00  0.2640E+03
