 running on   48 total cores
 distrk:  each k-point on   48 cores,    1 groups
 distr:  one band on    8 cores,    6 groups
 using from now: INCAR     
 vasp.5.4.4.18Apr17-6-g9f103f2a35 (build Aug 13 2022 23:40:43) complex          
  
 POSCAR found type information on POSCAR  C  O 
 POSCAR found :  2 types and      51 ions
 scaLAPACK will be used

 ----------------------------------------------------------------------------- 
|                                                                             |
|  ADVICE TO THIS USER RUNNING 'VASP/VAMP'   (HEAR YOUR MASTER'S VOICE ...):  |
|                                                                             |
|      You have a (more or less) 'large supercell' and for larger cells       |
|      it might be more efficient to use real space projection opertators     |
|      So try LREAL= Auto  in the INCAR   file.                               |
|      Mind:          For very  accurate calculation you might also keep the  |
|      reciprocal projection scheme          (i.e. LREAL=.FALSE.)             |
|                                                                             |
 ----------------------------------------------------------------------------- 

 LDA part: xc-table for Pade appr. of Perdew
 POSCAR found type information on POSCAR  C  O 
 POSCAR found :  2 types and      51 ions
 found WAVECAR, reading the header
  number of k-points has changed, file:     3 present:     5
  trying to continue reading WAVECAR, but it might fail
 POSCAR, INCAR and KPOINTS ok, starting setup
 FFT: planning ...
 reading WAVECAR
 the WAVECAR file was read successfully
 charge-density read from file: 1.00000000000000                        
 entering main loop
       N       E                     dE             d eps       ncg     rms          rms(c)
DAV:   1    -0.453292689906E+03   -0.45329E+03   -0.28415E+02  1344   0.216E+01    0.500E-01
RMM:   2    -0.454280613765E+03   -0.98792E+00   -0.99042E+00  1418   0.566E+00    0.207E-01
RMM:   3    -0.454332900414E+03   -0.52287E-01   -0.58572E-01  1573   0.110E+00    0.153E-01
RMM:   4    -0.454336784754E+03   -0.38843E-02   -0.40757E-02  1576   0.311E-01    0.152E-01
RMM:   5    -0.454336892019E+03   -0.10727E-03   -0.31863E-03  1513   0.906E-02    0.610E-02
RMM:   6    -0.454336918443E+03   -0.26424E-04   -0.49365E-04  1528   0.459E-02    0.151E-02
RMM:   7    -0.454336925683E+03   -0.72404E-05   -0.21456E-05  1031   0.109E-02
   1 F= -.45433693E+03 E0= -.45433687E+03  d E =-.120161E-03
