 vasp.5.4.4.18Apr17-6-g9f103f2a35 (build Aug 13 2022 23:40:43) complex          
  
 executed on             LinuxIFC date 2024.11.10  03:40:13
 running on   48 total cores
 distrk:  each k-point on   48 cores,    1 groups
 distr:  one band on NCORES_PER_BAND=   8 cores,    6 groups


--------------------------------------------------------------------------------------------------------


 INCAR:
 POTCAR:    PAW_PBE C 08Apr2002                   
 POTCAR:    PAW_PBE O 08Apr2002                   
 POTCAR:    PAW_PBE C 08Apr2002                   
   VRHFIN =C: s2p2                                                              
   LEXCH  = PE                                                                  
   EATOM  =   147.1560 eV,   10.8157 Ry                                         
                                                                                
   TITEL  = PAW_PBE C 08Apr2002                                                 
   LULTRA =        F    use ultrasoft PP ?                                      
   IUNSCR =        1    unscreen: 0-lin 1-nonlin 2-no                           
   RPACOR =    1.200    partial core radius                                     
   POMASS =   12.011; ZVAL   =    4.000    mass and valenz                      
   RCORE  =    1.500    outmost cutoff radius                                   
   RWIGS  =    1.630; RWIGS  =    0.863    wigner-seitz radius (au A)           
   ENMAX  =  400.000; ENMIN  =  300.000 eV                                      
   ICORE  =        2    local potential                                         
   LCOR   =        T    correct aug charges                                     
   LPAW   =        T    paw PP                                                  
   EAUG   =  644.873                                                            
   DEXC   =    0.000                                                            
   RMAX   =    1.529    core radius for proj-oper                               
   RAUG   =    1.300    factor for augmentation sphere                          
   RDEP   =    1.501    radius for radial grids                                 
   RDEPT  =    1.300    core radius for aug-charge                              
                                                                                
   Atomic configuration                                                         
    4 entries                                                                   
     n  l   j            E        occ.                                          
     1  0  0.50      -273.3789   2.0000                                         
     2  0  0.50       -13.7508   2.0000                                         
     2  1  0.50        -5.2854   2.0000                                         
     3  2  1.50        -5.4423   0.0000                                         
   Description                                                                  
     l       E           TYP  RCUT    TYP  RCUT                                 
     0    -13.7508458     23  1.200                                             
     0     -8.2022199     23  1.200                                             
     1     -5.2854383     23  1.500                                             
     1     34.0145650     23  1.500                                             
     2     -5.4423304      7  1.500                                             
  local pseudopotential read in
  partial core-charges read in
  partial kinetic energy density read in
  atomic valenz-charges read in
  non local Contribution for L=           0  read in
    real space projection operators read in
  non local Contribution for L=           0  read in
    real space projection operators read in
  non local Contribution for L=           1  read in
    real space projection operators read in
  non local Contribution for L=           1  read in
    real space projection operators read in
    PAW grid and wavefunctions read in
 
   number of l-projection  operators is LMAX  =           4
   number of lm-projection operators is LMMAX =           8
 
 POTCAR:    PAW_PBE O 08Apr2002                   
   VRHFIN =O: s2p4                                                              
   LEXCH  = PE                                                                  
   EATOM  =   432.3788 eV,   31.7789 Ry                                         
                                                                                
   TITEL  = PAW_PBE O 08Apr2002                                                 
   LULTRA =        F    use ultrasoft PP ?                                      
   IUNSCR =        1    unscreen: 0-lin 1-nonlin 2-no                           
   RPACOR =    1.200    partial core radius                                     
   POMASS =   16.000; ZVAL   =    6.000    mass and valenz                      
   RCORE  =    1.520    outmost cutoff radius                                   
   RWIGS  =    1.550; RWIGS  =    0.820    wigner-seitz radius (au A)           
   ENMAX  =  400.000; ENMIN  =  300.000 eV                                      
   ICORE  =        2    local potential                                         
   LCOR   =        T    correct aug charges                                     
   LPAW   =        T    paw PP                                                  
   EAUG   =  605.392                                                            
   DEXC   =    0.000                                                            
   RMAX   =    1.553    core radius for proj-oper                               
   RAUG   =    1.300    factor for augmentation sphere                          
   RDEP   =    1.550    radius for radial grids                                 
   RDEPT  =    1.329    core radius for aug-charge                              
                                                                                
   Atomic configuration                                                         
    4 entries                                                                   
     n  l   j            E        occ.                                          
     1  0  0.50      -514.6923   2.0000                                         
     2  0  0.50       -23.9615   2.0000                                         
     2  1  0.50        -9.0305   4.0000                                         
     3  2  1.50        -9.5241   0.0000                                         
   Description                                                                  
     l       E           TYP  RCUT    TYP  RCUT                                 
     0    -23.9615318     23  1.200                                             
     0     -9.5240782     23  1.200                                             
     1     -9.0304911     23  1.520                                             
     1      8.1634956     23  1.520                                             
     2     -9.5240782      7  1.500                                             
  local pseudopotential read in
  partial core-charges read in
  partial kinetic energy density read in
  kinetic energy density of atom read in
  atomic valenz-charges read in
  non local Contribution for L=           0  read in
    real space projection operators read in
  non local Contribution for L=           0  read in
    real space projection operators read in
  non local Contribution for L=           1  read in
    real space projection operators read in
  non local Contribution for L=           1  read in
    real space projection operators read in
    PAW grid and wavefunctions read in
 
   number of l-projection  operators is LMAX  =           4
   number of lm-projection operators is LMMAX =           8
 

 ----------------------------------------------------------------------------- 
|                                                                             |
|  ADVICE TO THIS USER RUNNING 'VASP/VAMP'   (HEAR YOUR MASTER'S VOICE ...):  |
|                                                                             |
|      You have a (more or less) 'large supercell' and for larger cells       |
|      it might be more efficient to use real space projection opertators     |
|      So try LREAL= Auto  in the INCAR   file.                               |
|      Mind:          For very  accurate calculation you might also keep the  |
|      reciprocal projection scheme          (i.e. LREAL=.FALSE.)             |
|                                                                             |
 ----------------------------------------------------------------------------- 

  PAW_PBE C 08Apr2002                   :
 energy of atom  1       EATOM= -147.1560
 kinetic energy error for atom=    0.0288 (will be added to EATOM!!)
  PAW_PBE O 08Apr2002                   :
 energy of atom  2       EATOM= -432.3788
 kinetic energy error for atom=    0.1156 (will be added to EATOM!!)
 
 
 POSCAR: generated by phonopy                    
  positions in direct lattice
  No initial velocities read in
 exchange correlation table for  LEXCH =        8
   RHO(1)=    0.500       N(1)  =     2000
   RHO(2)=  100.500       N(2)  =     4000

 VTST: version 3.2, (02/03/18)

 CHAIN: initializing optimizer
 
 OPT: Using VASP Dynamics algorithm
 CHAIN: Read ICHAIN            0
 
 POSCAR: generated by phonopy                    
  positions in direct lattice
  No initial velocities read in
 


--------------------------------------------------------------------------------------------------------


 ion  position               nearest neighbor table
   1  0.001  0.000  0.418-  26 1.41  46 1.42  30 1.43
   2  0.200  0.000  0.418-  27 1.42  26 1.42  47 1.42
   3  0.400  0.000  0.418-  28 1.42  27 1.42  48 1.42
   4  0.600  0.000  0.418-  29 1.42  28 1.42  49 1.42
   5  0.800  0.000  0.418-  30 1.42  29 1.42  50 1.42
   6  0.000  0.200  0.418-  31 1.42  35 1.42  26 1.42
   7  0.200  0.200  0.418-  32 1.42  31 1.42  27 1.42
   8  0.400  0.200  0.418-  33 1.42  32 1.42  28 1.42
   9  0.600  0.200  0.418-  34 1.42  33 1.42  29 1.42
  10  0.800  0.200  0.418-  35 1.42  34 1.42  30 1.42
  11  0.000  0.400  0.418-  36 1.42  40 1.42  31 1.42
  12  0.200  0.400  0.418-  37 1.42  36 1.42  32 1.42
  13  0.400  0.400  0.418-  51 1.00  38 1.42  37 1.42  33 1.42
  14  0.600  0.400  0.418-  39 1.42  38 1.42  34 1.42
  15  0.800  0.400  0.418-  40 1.42  39 1.42  35 1.42
  16  0.000  0.600  0.418-  41 1.42  45 1.42  36 1.42
  17  0.200  0.600  0.418-  42 1.42  41 1.42  37 1.42
  18  0.400  0.600  0.418-  43 1.42  42 1.42  38 1.42
  19  0.600  0.600  0.418-  44 1.42  43 1.42  39 1.42
  20  0.800  0.600  0.418-  45 1.42  44 1.42  40 1.42
  21  0.000  0.800  0.418-  46 1.42  50 1.42  41 1.42
  22  0.200  0.800  0.418-  47 1.42  46 1.42  42 1.42
  23  0.400  0.800  0.418-  48 1.42  47 1.42  43 1.42
  24  0.600  0.800  0.418-  49 1.42  48 1.42  44 1.42
  25  0.800  0.800  0.418-  50 1.42  49 1.42  45 1.42
  26  0.067  0.067  0.418-   1 1.41   2 1.42   6 1.42
  27  0.267  0.067  0.418-   2 1.42   3 1.42   7 1.42
  28  0.467  0.067  0.418-   3 1.42   4 1.42   8 1.42
  29  0.667  0.067  0.418-   4 1.42   5 1.42   9 1.42
  30  0.867  0.067  0.418-   5 1.42  10 1.42   1 1.43
  31  0.067  0.267  0.418-   6 1.42   7 1.42  11 1.42
  32  0.267  0.267  0.418-   7 1.42   8 1.42  12 1.42
  33  0.467  0.267  0.418-   8 1.42   9 1.42  13 1.42  51 1.74
  34  0.667  0.267  0.418-   9 1.42  10 1.42  14 1.42
  35  0.867  0.267  0.418-  10 1.42   6 1.42  15 1.42
  36  0.067  0.467  0.418-  11 1.42  12 1.42  16 1.42
  37  0.267  0.467  0.418-  12 1.42  13 1.42  17 1.42  51 1.74
  38  0.467  0.467  0.418-  13 1.42  14 1.42  18 1.42  51 1.74
  39  0.667  0.467  0.418-  14 1.42  15 1.42  19 1.42
  40  0.867  0.467  0.418-  15 1.42  11 1.42  20 1.42
  41  0.067  0.667  0.418-  16 1.42  17 1.42  21 1.42
  42  0.267  0.667  0.418-  17 1.42  18 1.42  22 1.42
  43  0.467  0.667  0.418-  18 1.42  19 1.42  23 1.42
  44  0.667  0.667  0.418-  19 1.42  20 1.42  24 1.42
  45  0.867  0.667  0.418-  20 1.42  16 1.42  25 1.42
  46  0.067  0.867  0.418-  21 1.42  22 1.42   1 1.42
  47  0.267  0.867  0.418-  22 1.42  23 1.42   2 1.42
  48  0.467  0.867  0.418-  23 1.42  24 1.42   3 1.42
  49  0.667  0.867  0.418-  24 1.42  25 1.42   4 1.42
  50  0.867  0.867  0.418-  25 1.42  21 1.42   5 1.42
  51  0.400  0.400  0.468-  13 1.00  38 1.74  37 1.74  33 1.74
 
  LATTYP: Found a hexagonal cell.
 ALAT       =    12.2999994816
 C/A-ratio  =     1.6260163287
  
  Lattice vectors:
  
 A1 = (   6.1499993860, -10.6521122225,   0.0000000000)
 A2 = ( -12.3000001905,   0.0000000000,   0.0000000000)
 A3 = (   0.0000000000,   0.0000000000, -20.0000000000)


Analysis of symmetry for initial positions (statically):
=====================================================================
 Subroutine PRICEL returns:
 Original cell was already a primitive cell.
 

 Routine SETGRP: Setting up the symmetry group for a 
 hexagonal supercell.


 Subroutine GETGRP returns: Found  1 space group operations
 (whereof  1 operations were pure point group operations)
 out of a pool of 24 trial point group operations.


The static configuration has the point symmetry C_1 .


Analysis of symmetry for dynamics (positions and initial velocities):
=====================================================================
 Subroutine PRICEL returns:
 Original cell was already a primitive cell.
 

 Routine SETGRP: Setting up the symmetry group for a 
 hexagonal supercell.


 Subroutine GETGRP returns: Found  1 space group operations
 (whereof  1 operations were pure point group operations)
 out of a pool of 24 trial point group operations.


The dynamic configuration has the point symmetry C_1 .


 Subroutine INISYM returns: Found  1 space group operations
 (whereof  1 operations are pure point group operations),
 and found     1 'primitive' translations

 
 
 KPOINTS: K-POINTS                                

Automatic generation of k-mesh.
Space group operators:
 irot       det(A)        alpha          n_x          n_y          n_z        tau_x        tau_y        tau_z
    1     1.000000     0.000000     1.000000     0.000000     0.000000     0.000000     0.000000     0.000000
 
 Subroutine IBZKPT returns following result:
 ===========================================
 
 Found      5 irreducible k-points:
 
 Following reciprocal coordinates:
            Coordinates               Weight
  0.000000  0.000000  0.000000      1.000000
  0.333333  0.000000  0.000000      2.000000
  0.000000  0.333333  0.000000      2.000000
  0.333333  0.333333  0.000000      2.000000
 -0.333333  0.333333  0.000000      2.000000
 
 Following cartesian coordinates:
            Coordinates               Weight
  0.000000  0.000000  0.000000      1.000000
  0.027100 -0.015646  0.000000      2.000000
  0.000000  0.031293  0.000000      2.000000
  0.027100  0.015646  0.000000      2.000000
 -0.027100  0.046939  0.000000      2.000000
 


--------------------------------------------------------------------------------------------------------




 Dimension of arrays:
   k-points           NKPTS =      5   k-points in BZ     NKDIM =      5   number of bands    NBANDS=    132
   number of dos      NEDOS =    301   number of ions     NIONS =     51
   non local maximal  LDIM  =      4   non local SUM 2l+1 LMDIM =      8
   total plane-waves  NPLWV = 896000
   max r-space proj   IRMAX =      1   max aug-charges    IRDMAX=  35685
   dimension x,y,z NGX =    80 NGY =   80 NGZ =  140
   dimension x,y,z NGXF=   160 NGYF=  160 NGZF=  280
   support grid    NGXF=   320 NGYF=  320 NGZF=  560
   ions per type =              50   1
   NGX,Y,Z   is equivalent  to a cutoff of  10.81, 10.81, 11.64 a.u.
   NGXF,Y,Z  is equivalent  to a cutoff of  21.63, 21.63, 23.27 a.u.

 SYSTEM =                                          
 POSCAR =  generated by phonopy                    

 Startparameter for this run:
   NWRITE =      2    write-flag & timer
   PREC   = accura    normal or accurate (medium, high low for compatibility)
   ISTART =      1    job   : 0-new  1-cont  2-samecut
   ICHARG =      1    charge: 1-file 2-atom 10-const
   ISPIN  =      1    spin polarized calculation?
   LNONCOLLINEAR =      F non collinear calculations
   LSORBIT =      F    spin-orbit coupling
   INIWAV =      1    electr: 0-lowe 1-rand  2-diag
   LASPH  =      F    aspherical Exc in radial PAW
   METAGGA=      F    non-selfconsistent MetaGGA calc.

 Electronic Relaxation 1
   ENCUT  =  400.0 eV  29.40 Ry    5.42 a.u.  20.06 20.06 32.61*2*pi/ulx,y,z
   ENINI  =  400.0     initial cutoff
   ENAUG  =  644.9 eV  augmentation charge cutoff
   NELM   =    300;   NELMIN=  2; NELMDL=  0     # of ELM steps 
   EDIFF  = 0.1E-04   stopping-criterion for ELM
   LREAL  =      F    real-space projection
   NLSPLINE    = F    spline interpolate recip. space projectors
   LCOMPAT=      F    compatible to vasp.4.4
   GGA_COMPAT  = T    GGA compatible to vasp.4.4-vasp.4.6
   LMAXPAW     = -100 max onsite density
   LMAXMIX     =    2 max onsite mixed and CHGCAR
   VOSKOWN=      0    Vosko Wilk Nusair interpolation
   ROPT   =    0.00000   0.00000
 Ionic relaxation
   EDIFFG = -.1E-02   stopping-criterion for IOM
   NSW    =      1    number of steps for IOM
   NBLOCK =      1;   KBLOCK =      1    inner block; outer block 
   IBRION =     -1    ionic relax: 0-MD 1-quasi-New 2-CG
   NFREE  =      0    steps in history (QN), initial steepest desc. (CG)
   ISIF   =      2    stress and relaxation
   IWAVPR =     10    prediction:  0-non 1-charg 2-wave 3-comb
   ISYM   =      2    0-nonsym 1-usesym 2-fastsym
   LCORR  =      T    Harris-Foulkes like correction to forces

   POTIM  = 0.5000    time-step for ionic-motion
   TEIN   =    0.0    initial temperature
   TEBEG  =    0.0;   TEEND  =   0.0 temperature during run
   SMASS  =  -3.00    Nose mass-parameter (am)
   estimated Nose-frequenzy (Omega)   =  0.10E-29 period in steps =****** mass=  -0.346E-26a.u.
   SCALEE = 1.0000    scale energy and forces
   NPACO  =    256;   APACO  = 16.0  distance and # of slots for P.C.
   PSTRESS=    0.0 pullay stress

  Mass of Ions in am
   POMASS =  12.01 16.00
  Ionic Valenz
   ZVAL   =   4.00  6.00
  Atomic Wigner-Seitz radii
   RWIGS  =  -1.00 -1.00
  virtual crystal weights 
   VCA    =   1.00  1.00
   NELECT =     206.0000    total number of electrons
   NUPDOWN=      -1.0000    fix difference up-down

 DOS related values:
   EMIN   =  10.00;   EMAX   =-10.00  energy-range for DOS
   EFERMI =   0.00
   ISMEAR =     0;   SIGMA  =   0.05  broadening in eV -4-tet -1-fermi 0-gaus

 Electronic relaxation 2 (details)
   IALGO  =     68    algorithm
   LDIAG  =      T    sub-space diagonalisation (order eigenvalues)
   LSUBROT=      F    optimize rotation matrix (better conditioning)
   TURBO    =      0    0=normal 1=particle mesh
   IRESTART =      0    0=no restart 2=restart with 2 vectors
   NREBOOT  =      0    no. of reboots
   NMIN     =      0    reboot dimension
   EREF     =   0.00    reference energy to select bands
   IMIX   =      4    mixing-type and parameters
     AMIX     =   0.40;   BMIX     =  1.00
     AMIX_MAG =   1.60;   BMIX_MAG =  1.00
     AMIN     =   0.10
     WC   =   100.;   INIMIX=   1;  MIXPRE=   1;  MAXMIX= -45

 Intra band minimization:
   WEIMIN = 0.0000     energy-eigenvalue tresh-hold
   EBREAK =  0.19E-07  absolut break condition
   DEPER  =   0.30     relativ break condition  

   TIME   =   0.40     timestep for ELM

  volume/ion in A,a.u.               =      51.38       346.73
  Fermi-wavevector in a.u.,A,eV,Ry     =   0.701305  1.325274  6.691736  0.491829
  Thomas-Fermi vector in A             =   1.785695
 
 Write flags
   LWAVE        =      F    write WAVECAR
   LDOWNSAMPLE  =      F    k-point downsampling of WAVECAR
   LCHARG       =      F    write CHGCAR
   LVTOT        =      F    write LOCPOT, total local potential
   LVHAR        =      F    write LOCPOT, Hartree potential only
   LELF         =      F    write electronic localiz. function (ELF)
   LORBIT       =      0    0 simple, 1 ext, 2 COOP (PROOUT), +10 PAW based schemes


 Dipole corrections
   LMONO  =      F    monopole corrections only (constant potential shift)
   LDIPOL =      F    correct potential (dipole corrections)
   IDIPOL =      0    1-x, 2-y, 3-z, 4-all directions 
   EPSILON=  1.0000000 bulk dielectric constant

 Exchange correlation treatment:
   GGA     =    --    GGA type
   LEXCH   =     8    internal setting for exchange type
   VOSKOWN=      0    Vosko Wilk Nusair interpolation
   LHFCALC =     F    Hartree Fock is set to
   LHFONE  =     F    Hartree Fock one center treatment
   AEXX    =    0.0000 exact exchange contribution

 Linear response parameters
   LEPSILON=     F    determine dielectric tensor
   LRPA    =     F    only Hartree local field effects (RPA)
   LNABLA  =     F    use nabla operator in PAW spheres
   LVEL    =     F    velocity operator in full k-point grid
   LINTERFAST=   F  fast interpolation
   KINTER  =     0    interpolate to denser k-point grid
   CSHIFT  =0.1000    complex shift for real part using Kramers Kronig
   OMEGAMAX=  -1.0    maximum frequency
   DEG_THRESHOLD= 0.2000000E-02 threshold for treating states as degnerate
   RTIME   =   -0.100 relaxation time in fs
  (WPLASMAI=    0.000 imaginary part of plasma frequency in eV, 0.658/RTIME)
   DFIELD  = 0.0000000 0.0000000 0.0000000 field for delta impulse in time
 
 Orbital magnetization related:
   ORBITALMAG=     F  switch on orbital magnetization
   LCHIMAG   =     F  perturbation theory with respect to B field
   DQ        =  0.001000  dq finite difference perturbation B field
   LLRAUG    =     F  two centre corrections for induced B field



--------------------------------------------------------------------------------------------------------


 Static calculation
 charge density and potential will be updated during run
 non-spin polarized calculation
 RMM-DIIS sequential band-by-band and
  variant of blocked Davidson during initial phase
 perform sub-space diagonalisation
    before iterative eigenvector-optimisation
 modified Broyden-mixing scheme, WC =      100.0
 initial mixing is a Kerker type mixing with AMIX =  0.4000 and BMIX =      1.0000
 Hartree-type preconditioning will be used
 using additional bands           29
 reciprocal scheme for non local part
 use partial core corrections
 calculate Harris-corrections to forces 
   (improved forces if not selfconsistent)
 use gradient corrections 
 use of overlap-Matrix (Vanderbilt PP)
 Gauss-broadening in eV      SIGMA  =   0.05


--------------------------------------------------------------------------------------------------------


  energy-cutoff  :      400.00
  volume of cell :     2620.42
      direct lattice vectors                 reciprocal lattice vectors
    12.300000191  0.000000000  0.000000000     0.081300812 -0.046939053  0.000000000
     6.150000804 10.652112223  0.000000000     0.000000000  0.093878095  0.000000000
     0.000000000  0.000000000 20.000000000     0.000000000  0.000000000  0.050000000

  length of vectors
    12.300000191 12.300000191 20.000000000     0.093878095  0.093878095  0.050000000


 
 old parameters found on file WAVECAR:
  energy-cutoff  :      400.00
  volume of cell :     2620.42
      direct lattice vectors                 reciprocal lattice vectors
    12.300000191  0.000000000  0.000000000     0.081300812 -0.046939053  0.000000000
     6.150000804 10.652112223  0.000000000     0.000000000  0.093878095  0.000000000
     0.000000000  0.000000000 20.000000000     0.000000000  0.000000000  0.050000000

  length of vectors

 
 k-points in units of 2pi/SCALE and weight: K-POINTS                                
   0.00000000  0.00000000  0.00000000       0.111
   0.02710027 -0.01564635  0.00000000       0.222
   0.00000000  0.03129270  0.00000000       0.222
   0.02710027  0.01564635  0.00000000       0.222
  -0.02710027  0.04693905  0.00000000       0.222
 
 k-points in reciprocal lattice and weights: K-POINTS                                
   0.00000000  0.00000000  0.00000000       0.111
   0.33333333  0.00000000  0.00000000       0.222
   0.00000000  0.33333333  0.00000000       0.222
   0.33333333  0.33333333  0.00000000       0.222
  -0.33333333  0.33333333  0.00000000       0.222
 
 position of ions in fractional coordinates (direct lattice) 
   0.00081301  0.00000000  0.41799748
   0.20000000  0.00000000  0.41799748
   0.40000000  0.00000000  0.41799748
   0.60000000  0.00000000  0.41799748
   0.80000000  0.00000000  0.41799748
   0.00000000  0.20000000  0.41799748
   0.20000000  0.20000000  0.41799748
   0.40000000  0.20000000  0.41799748
   0.60000000  0.20000000  0.41799748
   0.80000000  0.20000000  0.41799748
   0.00000000  0.40000000  0.41799748
   0.20000000  0.40000000  0.41799748
   0.40000000  0.40000000  0.41799748
   0.60000000  0.40000000  0.41799748
   0.80000000  0.40000000  0.41799748
   0.00000000  0.60000000  0.41799748
   0.20000000  0.60000000  0.41799748
   0.40000000  0.60000000  0.41799748
   0.60000000  0.60000000  0.41799748
   0.80000000  0.60000000  0.41799748
   0.00000000  0.80000000  0.41799748
   0.20000000  0.80000000  0.41799748
   0.40000000  0.80000000  0.41799748
   0.60000000  0.80000000  0.41799748
   0.80000000  0.80000000  0.41799748
   0.06666667  0.06666660  0.41800609
   0.26666667  0.06666660  0.41800609
   0.46666667  0.06666660  0.41800609
   0.66666667  0.06666660  0.41800609
   0.86666667  0.06666660  0.41800609
   0.06666667  0.26666660  0.41800609
   0.26666667  0.26666660  0.41800609
   0.46666667  0.26666660  0.41800609
   0.66666667  0.26666660  0.41800609
   0.86666667  0.26666660  0.41800609
   0.06666667  0.46666660  0.41800609
   0.26666667  0.46666660  0.41800609
   0.46666667  0.46666660  0.41800609
   0.66666667  0.46666660  0.41800609
   0.86666667  0.46666660  0.41800609
   0.06666667  0.66666660  0.41800609
   0.26666667  0.66666660  0.41800609
   0.46666667  0.66666660  0.41800609
   0.66666667  0.66666660  0.41800609
   0.86666667  0.66666660  0.41800609
   0.06666667  0.86666660  0.41800609
   0.26666667  0.86666660  0.41800609
   0.46666667  0.86666660  0.41800609
   0.66666667  0.86666660  0.41800609
   0.86666667  0.86666660  0.41800609
   0.40000000  0.40000000  0.46800609
 
 position of ions in cartesian coordinates  (Angst):
   0.01000000  0.00000000  8.35994958
   2.46000004  0.00000000  8.35994958
   4.92000008  0.00000000  8.35994958
   7.38000011  0.00000000  8.35994958
   9.84000015  0.00000000  8.35994958
   1.23000016  2.13042244  8.35994958
   3.69000020  2.13042244  8.35994958
   6.15000024  2.13042244  8.35994958
   8.61000028  2.13042244  8.35994958
  11.07000031  2.13042244  8.35994958
   2.46000032  4.26084489  8.35994958
   4.92000036  4.26084489  8.35994958
   7.38000040  4.26084489  8.35994958
   9.84000044  4.26084489  8.35994958
  12.30000047  4.26084489  8.35994958
   3.69000048  6.39126733  8.35994958
   6.15000052  6.39126733  8.35994958
   8.61000056  6.39126733  8.35994958
  11.07000060  6.39126733  8.35994958
  13.53000064  6.39126733  8.35994958
   4.92000064  8.52168978  8.35994958
   7.38000068  8.52168978  8.35994958
   9.84000072  8.52168978  8.35994958
  12.30000076  8.52168978  8.35994958
  14.76000080  8.52168978  8.35994958
   1.22999970  0.71014014  8.36012184
   3.68999974  0.71014014  8.36012184
   6.14999977  0.71014014  8.36012184
   8.60999981  0.71014014  8.36012184
  11.06999985  0.71014014  8.36012184
   2.45999986  2.84056258  8.36012184
   4.91999990  2.84056258  8.36012184
   7.37999994  2.84056258  8.36012184
   9.83999997  2.84056258  8.36012184
  12.30000001  2.84056258  8.36012184
   3.69000002  4.97098503  8.36012184
   6.15000006  4.97098503  8.36012184
   8.61000010  4.97098503  8.36012184
  11.07000013  4.97098503  8.36012184
  13.53000017  4.97098503  8.36012184
   4.92000018  7.10140747  8.36012184
   7.38000022  7.10140747  8.36012184
   9.84000026  7.10140747  8.36012184
  12.30000030  7.10140747  8.36012184
  14.76000033  7.10140747  8.36012184
   6.15000034  9.23182991  8.36012184
   8.61000038  9.23182991  8.36012184
  11.07000042  9.23182991  8.36012184
  13.53000046  9.23182991  8.36012184
  15.99000049  9.23182991  8.36012184
   7.38000040  4.26084489  9.36012184
 


--------------------------------------------------------------------------------------------------------


 k-point  1 :   0.0000 0.0000 0.0000  plane waves:   47639
 k-point  2 :   0.3333 0.0000 0.0000  plane waves:   47601
 k-point  3 :   0.0000 0.3333 0.0000  plane waves:   47601
 k-point  4 :   0.3333 0.3333 0.0000  plane waves:   47601
 k-point  5 :  -0.3333 0.3333 0.0000  plane waves:   47598

 maximum and minimum number of plane-waves per node :      5975     5928

 maximum number of plane-waves:     47639
 maximum index in each direction: 
   IXMAX=   20   IYMAX=   20   IZMAX=   32
   IXMIN=  -20   IYMIN=  -20   IZMIN=  -32


 parallel 3D FFT for wavefunctions:
    minimum data exchange during FFTs selected (reduces bandwidth)
 parallel 3D FFT for charge:
    minimum data exchange during FFTs selected (reduces bandwidth)


 total amount of memory used by VASP MPI-rank0    90113. kBytes
=======================================================================

   base      :      30000. kBytes
   nonl-proj :       8674. kBytes
   fftplans  :      26248. kBytes
   grid      :      14579. kBytes
   one-center:         21. kBytes
   wavefun   :      10591. kBytes
 
     INWAV:  cpu time    0.8451: real time    0.8455
 Broyden mixing: mesh for mixing (old mesh)
   NGX = 41   NGY = 41   NGZ = 65
  (NGX  =160   NGY  =160   NGZ  =280)
  gives a total of 109265 points

 initial charge density was supplied:
 number of electron     206.0000000 magnetization 
 keeping initial charge density in first step


--------------------------------------------------------------------------------------------------------


 Maximum index for augmentation-charges         1119 (set IRDMAX)


--------------------------------------------------------------------------------------------------------


 First call to EWALD:  gamma=   0.129
 Maximum number of real-space cells 3x 3x 2
 Maximum number of reciprocal cells 3x 3x 4

    FEWALD:  cpu time    0.0020: real time    0.0033


--------------------------------------- Iteration      1(   1)  ---------------------------------------


    POTLOK:  cpu time    0.1137: real time    0.1149
    SETDIJ:  cpu time    0.0827: real time    0.0828
     EDDAV:  cpu time    4.0757: real time    4.0791
       DOS:  cpu time    0.0008: real time    0.0007
    CHARGE:  cpu time    0.3894: real time    0.3895
    MIXING:  cpu time    0.0060: real time    0.0062
    --------------------------------------------
      LOOP:  cpu time    4.6682: real time    4.6731

 eigenvalue-minimisations  :  1344
 total energy-change (2. order) :-0.4532927E+03  (-0.2841468E+02)
 number of electron     206.0000000 magnetization 
 augmentation part        5.5092719 magnetization 

 Broyden mixing:
  rms(total) = 0.49977E-01    rms(broyden)= 0.49947E-01
  rms(prec ) = 0.51502E-01
  weight for this iteration     100.00

 Free energy of the ion-electron system (eV)
  ---------------------------------------------------
  alpha Z        PSCENC =        82.54348252
  Ewald energy   TEWEN  =     34516.53772506
  -Hartree energ DENC   =    -41034.84009153
  -exchange      EXHF   =         0.00000000
  -V(xc)+E(xc)   XCENC  =       721.38010681
  PAW double counting   =     22781.19595426   -22817.52509957
  entropy T*S    EENTRO =        -0.00057039
  eigenvalues    EBANDS =     -2491.20858669
  atomic energy  EATOM  =      7788.62438962
  Solvation  Ediel_sol  =         0.00000000
  ---------------------------------------------------
  free energy    TOTEN  =      -453.29268991 eV

  energy without entropy =     -453.29211951  energy(sigma->0) =     -453.29240471


--------------------------------------------------------------------------------------------------------




--------------------------------------- Iteration      1(   2)  ---------------------------------------


    POTLOK:  cpu time    0.0990: real time    0.1000
    SETDIJ:  cpu time    0.0796: real time    0.0812
    EDDIAG:  cpu time    0.8787: real time    0.8791
  RMM-DIIS:  cpu time    3.7594: real time    3.7646
    ORTHCH:  cpu time    0.0409: real time    0.0410
       DOS:  cpu time    0.0004: real time    0.0004
    CHARGE:  cpu time    0.3873: real time    0.3876
    MIXING:  cpu time    0.0048: real time    0.0049
    --------------------------------------------
      LOOP:  cpu time    5.2500: real time    5.2588

 eigenvalue-minimisations  :  1418
 total energy-change (2. order) :-0.9879239E+00  (-0.9904235E+00)
 number of electron     206.0000000 magnetization 
 augmentation part        5.5409863 magnetization 

 Broyden mixing:
  rms(total) = 0.20734E-01    rms(broyden)= 0.20676E-01
  rms(prec ) = 0.22164E-01
  weight for this iteration     100.00

 eigenvalues of (default mixing * dielectric matrix)
  average eigenvalue GAMMA=   0.7387
  0.7387

 Free energy of the ion-electron system (eV)
  ---------------------------------------------------
  alpha Z        PSCENC =        82.54348252
  Ewald energy   TEWEN  =     34516.53772506
  -Hartree energ DENC   =    -41032.29902827
  -exchange      EXHF   =         0.00000000
  -V(xc)+E(xc)   XCENC  =       721.27234569
  PAW double counting   =     22841.81594521   -22878.09363224
  entropy T*S    EENTRO =        -0.00010142
  eigenvalues    EBANDS =     -2494.68173995
  atomic energy  EATOM  =      7788.62438962
  Solvation  Ediel_sol  =         0.00000000
  ---------------------------------------------------
  free energy    TOTEN  =      -454.28061377 eV

  energy without entropy =     -454.28051235  energy(sigma->0) =     -454.28056306


--------------------------------------------------------------------------------------------------------




--------------------------------------- Iteration      1(   3)  ---------------------------------------


    POTLOK:  cpu time    0.0995: real time    0.1023
    SETDIJ:  cpu time    0.0890: real time    0.0904
    EDDIAG:  cpu time    0.8806: real time    0.8821
  RMM-DIIS:  cpu time    4.1408: real time    4.1450
    ORTHCH:  cpu time    0.0411: real time    0.0412
       DOS:  cpu time    0.0004: real time    0.0004
    CHARGE:  cpu time    0.3884: real time    0.3884
    MIXING:  cpu time    0.0038: real time    0.0038
    --------------------------------------------
      LOOP:  cpu time    5.6434: real time    5.6535

 eigenvalue-minimisations  :  1573
 total energy-change (2. order) :-0.5228665E-01  (-0.5857218E-01)
 number of electron     206.0000000 magnetization 
 augmentation part        5.5434112 magnetization 

 Broyden mixing:
  rms(total) = 0.15341E-01    rms(broyden)= 0.15326E-01
  rms(prec ) = 0.15899E-01
  weight for this iteration     100.00

 eigenvalues of (default mixing * dielectric matrix)
  average eigenvalue GAMMA=   0.6770
  0.6770  0.6770

 Free energy of the ion-electron system (eV)
  ---------------------------------------------------
  alpha Z        PSCENC =        82.54348252
  Ewald energy   TEWEN  =     34516.53772506
  -Hartree energ DENC   =    -41033.00576452
  -exchange      EXHF   =         0.00000000
  -V(xc)+E(xc)   XCENC  =       721.30523557
  PAW double counting   =     22830.63688091   -22866.92948078
  entropy T*S    EENTRO =        -0.00013206
  eigenvalues    EBANDS =     -2494.04523673
  atomic energy  EATOM  =      7788.62438962
  Solvation  Ediel_sol  =         0.00000000
  ---------------------------------------------------
  free energy    TOTEN  =      -454.33290041 eV

  energy without entropy =     -454.33276836  energy(sigma->0) =     -454.33283439


--------------------------------------------------------------------------------------------------------




--------------------------------------- Iteration      1(   4)  ---------------------------------------


    POTLOK:  cpu time    0.0974: real time    0.0984
    SETDIJ:  cpu time    0.0790: real time    0.0801
    EDDIAG:  cpu time    0.8754: real time    0.8760
  RMM-DIIS:  cpu time    4.1038: real time    4.1085
    ORTHCH:  cpu time    0.0412: real time    0.0412
       DOS:  cpu time    0.0004: real time    0.0004
    CHARGE:  cpu time    0.3867: real time    0.3871
    MIXING:  cpu time    0.0109: real time    0.0109
    --------------------------------------------
      LOOP:  cpu time    5.5947: real time    5.6025

 eigenvalue-minimisations  :  1576
 total energy-change (2. order) :-0.3884340E-02  (-0.4075718E-02)
 number of electron     206.0000000 magnetization 
 augmentation part        5.5459712 magnetization 

 Broyden mixing:
  rms(total) = 0.15182E-01    rms(broyden)= 0.15181E-01
  rms(prec ) = 0.15660E-01
  weight for this iteration     100.00

 eigenvalues of (default mixing * dielectric matrix)
  average eigenvalue GAMMA=   0.9822
  1.1983  1.1983  0.5499

 Free energy of the ion-electron system (eV)
  ---------------------------------------------------
  alpha Z        PSCENC =        82.54348252
  Ewald energy   TEWEN  =     34516.53772506
  -Hartree energ DENC   =    -41033.34179572
  -exchange      EXHF   =         0.00000000
  -V(xc)+E(xc)   XCENC  =       721.32034094
  PAW double counting   =     22822.00666162   -22858.30685864
  entropy T*S    EENTRO =        -0.00011400
  eigenvalues    EBANDS =     -2493.72061614
  atomic energy  EATOM  =      7788.62438962
  Solvation  Ediel_sol  =         0.00000000
  ---------------------------------------------------
  free energy    TOTEN  =      -454.33678475 eV

  energy without entropy =     -454.33667075  energy(sigma->0) =     -454.33672775


--------------------------------------------------------------------------------------------------------




--------------------------------------- Iteration      1(   5)  ---------------------------------------


    POTLOK:  cpu time    0.0981: real time    0.0982
    SETDIJ:  cpu time    0.0796: real time    0.0796
    EDDIAG:  cpu time    0.8757: real time    0.8762
  RMM-DIIS:  cpu time    3.9636: real time    3.9653
    ORTHCH:  cpu time    0.0499: real time    0.0500
       DOS:  cpu time    0.0003: real time    0.0003
    CHARGE:  cpu time    0.3889: real time    0.3889
    MIXING:  cpu time    0.0048: real time    0.0048
    --------------------------------------------
      LOOP:  cpu time    5.4609: real time    5.4633

 eigenvalue-minimisations  :  1513
 total energy-change (2. order) :-0.1072653E-03  (-0.3186266E-03)
 number of electron     206.0000000 magnetization 
 augmentation part        5.5449537 magnetization 

 Broyden mixing:
  rms(total) = 0.60956E-02    rms(broyden)= 0.60947E-02
  rms(prec ) = 0.62573E-02
  weight for this iteration     100.00

 eigenvalues of (default mixing * dielectric matrix)
  average eigenvalue GAMMA=   1.1578
  1.5133  1.5133  0.5658  1.0388

 Free energy of the ion-electron system (eV)
  ---------------------------------------------------
  alpha Z        PSCENC =        82.54348252
  Ewald energy   TEWEN  =     34516.53772506
  -Hartree energ DENC   =    -41034.25082177
  -exchange      EXHF   =         0.00000000
  -V(xc)+E(xc)   XCENC  =       721.35837726
  PAW double counting   =     22794.95884063   -22831.27874313
  entropy T*S    EENTRO =        -0.00011810
  eigenvalues    EBANDS =     -2492.83002411
  atomic energy  EATOM  =      7788.62438962
  Solvation  Ediel_sol  =         0.00000000
  ---------------------------------------------------
  free energy    TOTEN  =      -454.33689202 eV

  energy without entropy =     -454.33677392  energy(sigma->0) =     -454.33683297


--------------------------------------------------------------------------------------------------------




--------------------------------------- Iteration      1(   6)  ---------------------------------------


    POTLOK:  cpu time    0.0985: real time    0.0999
    SETDIJ:  cpu time    0.0790: real time    0.0807
    EDDIAG:  cpu time    0.8768: real time    0.8777
  RMM-DIIS:  cpu time    3.9897: real time    3.9916
    ORTHCH:  cpu time    0.0412: real time    0.0412
       DOS:  cpu time    0.0004: real time    0.0004
    CHARGE:  cpu time    0.3861: real time    0.3865
    MIXING:  cpu time    0.0042: real time    0.0042
    --------------------------------------------
      LOOP:  cpu time    5.4758: real time    5.4821

 eigenvalue-minimisations  :  1528
 total energy-change (2. order) :-0.2642392E-04  (-0.4936513E-04)
 number of electron     206.0000000 magnetization 
 augmentation part        5.5443255 magnetization 

 Broyden mixing:
  rms(total) = 0.15104E-02    rms(broyden)= 0.15086E-02
  rms(prec ) = 0.15698E-02
  weight for this iteration     100.00

 eigenvalues of (default mixing * dielectric matrix)
  average eigenvalue GAMMA=   1.2081
  2.0990  1.2119  1.2119  0.9528  0.5648

 Free energy of the ion-electron system (eV)
  ---------------------------------------------------
  alpha Z        PSCENC =        82.54348252
  Ewald energy   TEWEN  =     34516.53772506
  -Hartree energ DENC   =    -41034.91685649
  -exchange      EXHF   =         0.00000000
  -V(xc)+E(xc)   XCENC  =       721.38615735
  PAW double counting   =     22775.36176511   -22811.69509012
  entropy T*S    EENTRO =        -0.00011929
  eigenvalues    EBANDS =     -2492.17837220
  atomic energy  EATOM  =      7788.62438962
  Solvation  Ediel_sol  =         0.00000000
  ---------------------------------------------------
  free energy    TOTEN  =      -454.33691844 eV

  energy without entropy =     -454.33679915  energy(sigma->0) =     -454.33685880


--------------------------------------------------------------------------------------------------------




--------------------------------------- Iteration      1(   7)  ---------------------------------------


    POTLOK:  cpu time    0.0982: real time    0.0984
    SETDIJ:  cpu time    0.0882: real time    0.0882
    EDDIAG:  cpu time    0.8955: real time    0.8960
  RMM-DIIS:  cpu time    2.9165: real time    2.9234
    ORTHCH:  cpu time    0.0410: real time    0.0411
       DOS:  cpu time    0.0003: real time    0.0003
    --------------------------------------------
      LOOP:  cpu time    4.0397: real time    4.0474

 eigenvalue-minimisations  :  1031
 total energy-change (2. order) :-0.7240440E-05  (-0.2145576E-05)
 number of electron     206.0000000 magnetization 
 augmentation part        5.5443255 magnetization 

 Free energy of the ion-electron system (eV)
  ---------------------------------------------------
  alpha Z        PSCENC =        82.54348252
  Ewald energy   TEWEN  =     34516.53772506
  -Hartree energ DENC   =    -41034.91604980
  -exchange      EXHF   =         0.00000000
  -V(xc)+E(xc)   XCENC  =       721.38566650
  PAW double counting   =     22777.07371602   -22813.40608993
  entropy T*S    EENTRO =        -0.00012016
  eigenvalues    EBANDS =     -2492.17964550
  atomic energy  EATOM  =      7788.62438962
  Solvation  Ediel_sol  =         0.00000000
  ---------------------------------------------------
  free energy    TOTEN  =      -454.33692568 eV

  energy without entropy =     -454.33680552  energy(sigma->0) =     -454.33686560


--------------------------------------------------------------------------------------------------------




 average (electrostatic) potential at core
  the test charge radii are     0.6991  0.7215
  (the norm of the test charge is              1.0000)
       1 -58.2603       2 -58.2575       3 -58.2024       4 -58.0583       5 -58.2054
       6 -58.2608       7 -58.2749       8 -58.1325       9 -58.1330      10 -58.2737
      11 -58.2028      12 -58.1324      13 -60.6854      14 -58.1319      15 -58.2027
      16 -58.0587      17 -58.1320      18 -58.1315      19 -58.0574      20 -58.0650
      21 -58.2062      22 -58.2720      23 -58.2025      24 -58.0648      25 -58.0663
      26 -58.3782      27 -58.2906      28 -58.2210      29 -58.2222      30 -58.2948
      31 -58.2924      32 -58.3136      33 -58.8113      34 -58.3133      35 -58.2913
      36 -58.2213      37 -58.8105      38 -58.8103      39 -58.2210      40 -58.2223
      41 -58.2228      42 -58.3120      43 -58.2206      44 -58.1635      45 -58.1643
      46 -58.2931      47 -58.2905      48 -58.2219      49 -58.1642      50 -58.2247
      51 -81.5742
 
 
 
 E-fermi :  -3.0176     XC(G=0):  -2.2109     alpha+bet : -1.9409


 k-point     1 :       0.0000    0.0000    0.0000
  band No.  band energies     occupation 
      1     -31.7396      2.00000
      2     -22.2711      2.00000
      3     -21.5029      2.00000
      4     -21.5017      2.00000
      5     -21.3984      2.00000
      6     -21.3941      2.00000
      7     -21.3901      2.00000
      8     -20.8753      2.00000
      9     -19.8776      2.00000
     10     -19.8739      2.00000
     11     -19.5486      2.00000
     12     -19.5453      2.00000
     13     -19.5382      2.00000
     14     -19.1989      2.00000
     15     -18.9011      2.00000
     16     -18.8958      2.00000
     17     -18.6480      2.00000
     18     -18.6435      2.00000
     19     -18.6411      2.00000
     20     -17.8832      2.00000
     21     -17.0210      2.00000
     22     -17.0184      2.00000
     23     -16.4751      2.00000
     24     -16.4580      2.00000
     25     -16.4559      2.00000
     26     -16.0569      2.00000
     27     -15.9988      2.00000
     28     -15.9962      2.00000
     29     -15.4973      2.00000
     30     -15.4949      2.00000
     31     -15.4912      2.00000
     32     -15.0880      2.00000
     33     -14.6362      2.00000
     34     -14.6296      2.00000
     35     -14.1499      2.00000
     36     -14.1451      2.00000
     37     -14.1385      2.00000
     38     -13.9663      2.00000
     39     -12.9909      2.00000
     40     -12.9881      2.00000
     41     -12.0316      2.00000
     42     -11.7701      2.00000
     43     -11.7647      2.00000
     44     -11.7612      2.00000
     45     -11.6900      2.00000
     46     -11.6881      2.00000
     47     -11.6555      2.00000
     48     -11.6528      2.00000
     49     -11.6475      2.00000
     50     -11.6438      2.00000
     51     -10.8033      2.00000
     52     -10.8013      2.00000
     53     -10.4291      2.00000
     54     -10.3344      2.00000
     55     -10.2922      2.00000
     56     -10.2899      2.00000
     57     -10.2658      2.00000
     58     -10.0762      2.00000
     59      -9.6839      2.00000
     60      -9.6790      2.00000
     61      -9.3249      2.00000
     62      -9.3223      2.00000
     63      -9.3034      2.00000
     64      -9.2791      2.00000
     65      -9.2783      2.00000
     66      -9.0414      2.00000
     67      -9.0175      2.00000
     68      -9.0022      2.00000
     69      -8.9485      2.00000
     70      -8.9413      2.00000
     71      -8.9397      2.00000
     72      -8.9351      2.00000
     73      -8.9206      2.00000
     74      -8.9182      2.00000
     75      -8.8940      2.00000
     76      -8.4376      2.00000
     77      -7.8072      2.00000
     78      -7.8023      2.00000
     79      -7.3236      2.00000
     80      -7.3200      2.00000
     81      -7.3064      2.00000
     82      -7.3040      2.00000
     83      -7.3002      2.00000
     84      -7.2936      2.00000
     85      -7.1606      2.00000
     86      -7.1579      2.00000
     87      -7.1543      2.00000
     88      -6.7570      2.00000
     89      -6.5071      2.00000
     90      -6.5034      2.00000
     91      -6.2713      2.00000
     92      -6.2465      2.00000
     93      -6.2456      2.00000
     94      -5.9284      2.00000
     95      -5.9162      2.00000
     96      -5.1972      2.00000
     97      -4.7641      2.00000
     98      -4.7618      2.00000
     99      -4.2707      2.00000
    100      -4.2663      2.00000
    101      -4.2631      2.00000
    102      -3.2148      2.00000
    103      -3.2145      2.00000
    104      -2.9172      0.00452
    105      -1.4614      0.00000
    106      -1.4569      0.00000
    107      -1.4562      0.00000
    108      -0.9964      0.00000
    109      -0.9897      0.00000
    110      -0.5405      0.00000
    111       0.4204      0.00000
    112       0.4218      0.00000
    113       0.4254      0.00000
    114       0.5616      0.00000
    115       0.8381      0.00000
    116       0.8438      0.00000
    117       1.2950      0.00000
    118       1.3399      0.00000
    119       1.6810      0.00000
    120       1.8008      0.00000
    121       1.8018      0.00000
    122       1.8031      0.00000
    123       1.8262      0.00000
    124       1.8267      0.00000
    125       2.0310      0.00000
    126       2.1749      0.00000
    127       2.1779      0.00000
    128       2.1801      0.00000
    129       2.3452      0.00000
    130       2.3484      0.00000
    131       2.6245      0.00000
    132       2.6416      0.00000

 k-point     2 :       0.3333    0.0000    0.0000
  band No.  band energies     occupation 
      1     -31.7397      2.00000
      2     -22.1890      2.00000
      3     -21.8695      2.00000
      4     -21.6602      2.00000
      5     -21.4546      2.00000
      6     -21.0331      2.00000
      7     -20.8997      2.00000
      8     -20.7268      2.00000
      9     -20.4193      2.00000
     10     -20.1604      2.00000
     11     -19.7886      2.00000
     12     -19.6986      2.00000
     13     -19.3281      2.00000
     14     -19.2401      2.00000
     15     -19.0619      2.00000
     16     -18.5914      2.00000
     17     -18.4594      2.00000
     18     -18.1213      2.00000
     19     -18.0631      2.00000
     20     -17.5914      2.00000
     21     -17.4950      2.00000
     22     -17.3031      2.00000
     23     -17.2745      2.00000
     24     -16.8503      2.00000
     25     -16.6569      2.00000
     26     -16.1791      2.00000
     27     -15.9774      2.00000
     28     -15.8469      2.00000
     29     -15.2976      2.00000
     30     -15.1674      2.00000
     31     -15.1362      2.00000
     32     -14.8861      2.00000
     33     -14.7828      2.00000
     34     -14.4779      2.00000
     35     -14.4541      2.00000
     36     -13.7670      2.00000
     37     -13.7594      2.00000
     38     -13.1951      2.00000
     39     -13.0857      2.00000
     40     -12.9347      2.00000
     41     -12.9053      2.00000
     42     -12.5856      2.00000
     43     -12.5474      2.00000
     44     -12.3905      2.00000
     45     -12.0226      2.00000
     46     -11.6648      2.00000
     47     -11.4473      2.00000
     48     -11.2994      2.00000
     49     -11.1222      2.00000
     50     -10.9121      2.00000
     51     -10.8512      2.00000
     52     -10.5847      2.00000
     53     -10.5318      2.00000
     54     -10.2843      2.00000
     55     -10.2370      2.00000
     56     -10.1593      2.00000
     57     -10.0489      2.00000
     58      -9.8536      2.00000
     59      -9.8164      2.00000
     60      -9.6531      2.00000
     61      -9.6065      2.00000
     62      -9.5619      2.00000
     63      -9.5241      2.00000
     64      -9.3702      2.00000
     65      -9.3402      2.00000
     66      -9.2590      2.00000
     67      -9.1741      2.00000
     68      -9.0982      2.00000
     69      -9.0813      2.00000
     70      -8.8655      2.00000
     71      -8.7188      2.00000
     72      -8.6666      2.00000
     73      -8.5048      2.00000
     74      -8.4056      2.00000
     75      -8.2867      2.00000
     76      -8.1336      2.00000
     77      -8.0963      2.00000
     78      -8.0669      2.00000
     79      -7.9710      2.00000
     80      -7.8065      2.00000
     81      -7.6194      2.00000
     82      -7.3600      2.00000
     83      -7.3351      2.00000
     84      -7.2601      2.00000
     85      -7.1946      2.00000
     86      -6.9214      2.00000
     87      -6.8695      2.00000
     88      -6.6944      2.00000
     89      -6.5904      2.00000
     90      -6.3438      2.00000
     91      -6.1899      2.00000
     92      -6.0745      2.00000
     93      -5.9231      2.00000
     94      -5.7380      2.00000
     95      -5.6418      2.00000
     96      -5.3254      2.00000
     97      -5.1125      2.00000
     98      -4.9713      2.00000
     99      -4.9220      2.00000
    100      -4.2688      2.00000
    101      -4.1666      2.00000
    102      -3.3367      2.00000
    103      -3.1362      1.99920
    104      -2.8041      0.00000
    105      -1.5936      0.00000
    106      -1.4244      0.00000
    107      -0.8366      0.00000
    108      -0.8218      0.00000
    109      -0.7040      0.00000
    110      -0.6685      0.00000
    111      -0.1257      0.00000
    112      -0.0061      0.00000
    113       0.2940      0.00000
    114       0.7039      0.00000
    115       0.7279      0.00000
    116       1.0995      0.00000
    117       1.1755      0.00000
    118       1.3603      0.00000
    119       1.4621      0.00000
    120       1.5368      0.00000
    121       1.5705      0.00000
    122       1.6371      0.00000
    123       1.8302      0.00000
    124       1.9113      0.00000
    125       2.0369      0.00000
    126       2.2246      0.00000
    127       2.2711      0.00000
    128       2.3279      0.00000
    129       2.3393      0.00000
    130       2.3953      0.00000
    131       2.4570      0.00000
    132       2.7950      0.00000

 k-point     3 :       0.0000    0.3333    0.0000
  band No.  band energies     occupation 
      1     -31.7397      2.00000
      2     -22.1891      2.00000
      3     -21.8693      2.00000
      4     -21.6591      2.00000
      5     -21.4570      2.00000
      6     -21.0319      2.00000
      7     -20.8985      2.00000
      8     -20.7282      2.00000
      9     -20.4177      2.00000
     10     -20.1629      2.00000
     11     -19.7874      2.00000
     12     -19.6984      2.00000
     13     -19.3295      2.00000
     14     -19.2399      2.00000
     15     -19.0626      2.00000
     16     -18.5902      2.00000
     17     -18.4582      2.00000
     18     -18.1193      2.00000
     19     -18.0642      2.00000
     20     -17.5926      2.00000
     21     -17.4964      2.00000
     22     -17.3035      2.00000
     23     -17.2741      2.00000
     24     -16.8507      2.00000
     25     -16.6581      2.00000
     26     -16.1762      2.00000
     27     -15.9771      2.00000
     28     -15.8489      2.00000
     29     -15.2978      2.00000
     30     -15.1679      2.00000
     31     -15.1342      2.00000
     32     -14.8832      2.00000
     33     -14.7844      2.00000
     34     -14.4773      2.00000
     35     -14.4541      2.00000
     36     -13.7686      2.00000
     37     -13.7595      2.00000
     38     -13.1949      2.00000
     39     -13.0878      2.00000
     40     -12.9346      2.00000
     41     -12.9083      2.00000
     42     -12.5859      2.00000
     43     -12.5482      2.00000
     44     -12.3881      2.00000
     45     -12.0218      2.00000
     46     -11.6639      2.00000
     47     -11.4452      2.00000
     48     -11.2955      2.00000
     49     -11.1227      2.00000
     50     -10.9125      2.00000
     51     -10.8499      2.00000
     52     -10.5851      2.00000
     53     -10.5326      2.00000
     54     -10.2873      2.00000
     55     -10.2371      2.00000
     56     -10.1607      2.00000
     57     -10.0494      2.00000
     58      -9.8535      2.00000
     59      -9.8178      2.00000
     60      -9.6540      2.00000
     61      -9.6073      2.00000
     62      -9.5596      2.00000
     63      -9.5261      2.00000
     64      -9.3702      2.00000
     65      -9.3419      2.00000
     66      -9.2601      2.00000
     67      -9.1744      2.00000
     68      -9.0993      2.00000
     69      -9.0812      2.00000
     70      -8.8631      2.00000
     71      -8.7126      2.00000
     72      -8.6654      2.00000
     73      -8.5057      2.00000
     74      -8.4036      2.00000
     75      -8.2859      2.00000
     76      -8.1326      2.00000
     77      -8.0974      2.00000
     78      -8.0666      2.00000
     79      -7.9676      2.00000
     80      -7.8078      2.00000
     81      -7.6194      2.00000
     82      -7.3607      2.00000
     83      -7.3363      2.00000
     84      -7.2652      2.00000
     85      -7.1960      2.00000
     86      -6.9230      2.00000
     87      -6.8702      2.00000
     88      -6.6921      2.00000
     89      -6.5919      2.00000
     90      -6.3487      2.00000
     91      -6.1844      2.00000
     92      -6.0719      2.00000
     93      -5.9220      2.00000
     94      -5.7378      2.00000
     95      -5.6417      2.00000
     96      -5.3247      2.00000
     97      -5.1150      2.00000
     98      -4.9699      2.00000
     99      -4.9199      2.00000
    100      -4.2692      2.00000
    101      -4.1695      2.00000
    102      -3.3371      2.00000
    103      -3.1372      1.99929
    104      -2.8030      0.00000
    105      -1.5887      0.00000
    106      -1.4241      0.00000
    107      -0.8418      0.00000
    108      -0.8209      0.00000
    109      -0.7045      0.00000
    110      -0.6670      0.00000
    111      -0.1271      0.00000
    112      -0.0064      0.00000
    113       0.2924      0.00000
    114       0.7039      0.00000
    115       0.7259      0.00000
    116       1.1002      0.00000
    117       1.1769      0.00000
    118       1.3622      0.00000
    119       1.4631      0.00000
    120       1.5374      0.00000
    121       1.5715      0.00000
    122       1.6384      0.00000
    123       1.8311      0.00000
    124       1.9124      0.00000
    125       2.0401      0.00000
    126       2.2279      0.00000
    127       2.2742      0.00000
    128       2.3355      0.00000
    129       2.4265      0.00000
    130       2.7396      0.00000
    131       3.2541      0.00000
    132       3.6120      0.00000

 k-point     4 :       0.3333    0.3333    0.0000
  band No.  band energies     occupation 
      1     -31.7397      2.00000
      2     -22.1894      2.00000
      3     -21.8683      2.00000
      4     -21.6608      2.00000
      5     -21.4551      2.00000
      6     -21.0342      2.00000
      7     -20.8987      2.00000
      8     -20.7266      2.00000
      9     -20.4196      2.00000
     10     -20.1595      2.00000
     11     -19.7891      2.00000
     12     -19.6981      2.00000
     13     -19.3278      2.00000
     14     -19.2425      2.00000
     15     -19.0607      2.00000
     16     -18.5923      2.00000
     17     -18.4571      2.00000
     18     -18.1205      2.00000
     19     -18.0650      2.00000
     20     -17.5917      2.00000
     21     -17.4973      2.00000
     22     -17.3006      2.00000
     23     -17.2742      2.00000
     24     -16.8507      2.00000
     25     -16.6560      2.00000
     26     -16.1801      2.00000
     27     -15.9775      2.00000
     28     -15.8477      2.00000
     29     -15.2957      2.00000
     30     -15.1723      2.00000
     31     -15.1327      2.00000
     32     -14.8850      2.00000
     33     -14.7805      2.00000
     34     -14.4794      2.00000
     35     -14.4548      2.00000
     36     -13.7693      2.00000
     37     -13.7557      2.00000
     38     -13.1947      2.00000
     39     -13.0882      2.00000
     40     -12.9338      2.00000
     41     -12.9104      2.00000
     42     -12.5830      2.00000
     43     -12.5500      2.00000
     44     -12.3895      2.00000
     45     -12.0219      2.00000
     46     -11.6628      2.00000
     47     -11.4474      2.00000
     48     -11.2959      2.00000
     49     -11.1214      2.00000
     50     -10.9125      2.00000
     51     -10.8470      2.00000
     52     -10.5913      2.00000
     53     -10.5289      2.00000
     54     -10.2854      2.00000
     55     -10.2373      2.00000
     56     -10.1599      2.00000
     57     -10.0519      2.00000
     58      -9.8530      2.00000
     59      -9.8191      2.00000
     60      -9.6574      2.00000
     61      -9.6048      2.00000
     62      -9.5612      2.00000
     63      -9.5246      2.00000
     64      -9.3694      2.00000
     65      -9.3410      2.00000
     66      -9.2604      2.00000
     67      -9.1730      2.00000
     68      -9.0977      2.00000
     69      -9.0855      2.00000
     70      -8.8643      2.00000
     71      -8.7108      2.00000
     72      -8.6653      2.00000
     73      -8.5052      2.00000
     74      -8.3992      2.00000
     75      -8.2885      2.00000
     76      -8.1324      2.00000
     77      -8.0967      2.00000
     78      -8.0651      2.00000
     79      -7.9673      2.00000
     80      -7.8055      2.00000
     81      -7.6197      2.00000
     82      -7.3628      2.00000
     83      -7.3351      2.00000
     84      -7.2741      2.00000
     85      -7.1965      2.00000
     86      -6.9222      2.00000
     87      -6.8716      2.00000
     88      -6.6880      2.00000
     89      -6.5914      2.00000
     90      -6.3530      2.00000
     91      -6.1818      2.00000
     92      -6.0715      2.00000
     93      -5.9215      2.00000
     94      -5.7384      2.00000
     95      -5.6415      2.00000
     96      -5.3220      2.00000
     97      -5.1145      2.00000
     98      -4.9694      2.00000
     99      -4.9220      2.00000
    100      -4.2711      2.00000
    101      -4.1681      2.00000
    102      -3.3360      2.00000
    103      -3.1367      1.99925
    104      -2.8044      0.00000
    105      -1.5907      0.00000
    106      -1.4217      0.00000
    107      -0.8474      0.00000
    108      -0.8180      0.00000
    109      -0.7028      0.00000
    110      -0.6676      0.00000
    111      -0.1270      0.00000
    112      -0.0054      0.00000
    113       0.2919      0.00000
    114       0.7042      0.00000
    115       0.7275      0.00000
    116       1.0994      0.00000
    117       1.1753      0.00000
    118       1.3671      0.00000
    119       1.4641      0.00000
    120       1.5616      0.00000
    121       1.5794      0.00000
    122       1.7507      0.00000
    123       1.8315      0.00000
    124       2.1802      0.00000
    125       2.3351      0.00000
    126       2.3965      0.00000
    127       2.6151      0.00000
    128       2.7876      0.00000
    129       2.8452      0.00000
    130       3.2033      0.00000
    131       3.5952      0.00000
    132       4.1792      0.00000

 k-point     5 :      -0.3333    0.3333    0.0000
  band No.  band energies     occupation 
      1     -31.7397      2.00000
      2     -22.0813      2.00000
      3     -22.0069      2.00000
      4     -21.8006      2.00000
      5     -21.1746      2.00000
      6     -21.1499      2.00000
      7     -20.8650      2.00000
      8     -20.4108      2.00000
      9     -20.3385      2.00000
     10     -20.1784      2.00000
     11     -20.1494      2.00000
     12     -20.1402      2.00000
     13     -19.5663      2.00000
     14     -18.8277      2.00000
     15     -18.6732      2.00000
     16     -18.3730      2.00000
     17     -18.3462      2.00000
     18     -18.3376      2.00000
     19     -17.9288      2.00000
     20     -17.8004      2.00000
     21     -17.6011      2.00000
     22     -17.2626      2.00000
     23     -17.1503      2.00000
     24     -17.1257      2.00000
     25     -16.5409      2.00000
     26     -16.4372      2.00000
     27     -16.2846      2.00000
     28     -15.8088      2.00000
     29     -15.6269      2.00000
     30     -15.1760      2.00000
     31     -14.9707      2.00000
     32     -14.6499      2.00000
     33     -13.9575      2.00000
     34     -13.9421      2.00000
     35     -13.9256      2.00000
     36     -13.8734      2.00000
     37     -13.8629      2.00000
     38     -13.7907      2.00000
     39     -13.6732      2.00000
     40     -13.4979      2.00000
     41     -13.0365      2.00000
     42     -12.4746      2.00000
     43     -12.2546      2.00000
     44     -12.0711      2.00000
     45     -11.8222      2.00000
     46     -11.7726      2.00000
     47     -11.5635      2.00000
     48     -11.5471      2.00000
     49     -11.5205      2.00000
     50     -10.9293      2.00000
     51     -10.8171      2.00000
     52     -10.5298      2.00000
     53     -10.2105      2.00000
     54     -10.2044      2.00000
     55     -10.1915      2.00000
     56     -10.0954      2.00000
     57     -10.0526      2.00000
     58     -10.0215      2.00000
     59      -9.8985      2.00000
     60      -9.7508      2.00000
     61      -9.7453      2.00000
     62      -9.5676      2.00000
     63      -9.4419      2.00000
     64      -9.4052      2.00000
     65      -9.1990      2.00000
     66      -9.0461      2.00000
     67      -9.0346      2.00000
     68      -8.9012      2.00000
     69      -8.8857      2.00000
     70      -8.6865      2.00000
     71      -8.6404      2.00000
     72      -8.6318      2.00000
     73      -8.6253      2.00000
     74      -8.5821      2.00000
     75      -8.3763      2.00000
     76      -8.2493      2.00000
     77      -8.1610      2.00000
     78      -8.0345      2.00000
     79      -7.9836      2.00000
     80      -7.8851      2.00000
     81      -7.8572      2.00000
     82      -7.8522      2.00000
     83      -7.2273      2.00000
     84      -7.1847      2.00000
     85      -7.1259      2.00000
     86      -6.8831      2.00000
     87      -6.7215      2.00000
     88      -6.6097      2.00000
     89      -6.4628      2.00000
     90      -6.2681      2.00000
     91      -6.1017      2.00000
     92      -5.9168      2.00000
     93      -5.9088      2.00000
     94      -5.8994      2.00000
     95      -5.4517      2.00000
     96      -5.4244      2.00000
     97      -5.1242      2.00000
     98      -5.0116      2.00000
     99      -4.9814      2.00000
    100      -4.9576      2.00000
    101      -3.7329      2.00000
    102      -3.4580      2.00000
    103      -3.2798      2.00000
    104      -2.3868      0.00000
    105      -2.2236      0.00000
    106      -0.9324      0.00000
    107      -0.8780      0.00000
    108      -0.8683      0.00000
    109      -0.5375      0.00000
    110      -0.2636      0.00000
    111      -0.2116      0.00000
    112       0.2520      0.00000
    113       0.2546      0.00000
    114       0.2658      0.00000
    115       0.5971      0.00000
    116       0.7929      0.00000
    117       0.9474      0.00000
    118       0.9732      0.00000
    119       1.0614      0.00000
    120       1.7340      0.00000
    121       1.7440      0.00000
    122       1.7665      0.00000
    123       1.8266      0.00000
    124       2.1184      0.00000
    125       2.1230      0.00000
    126       2.1268      0.00000
    127       2.2458      0.00000
    128       2.2469      0.00000
    129       2.3616      0.00000
    130       3.0036      0.00000
    131       3.0094      0.00000
    132       3.0345      0.00000


--------------------------------------------------------------------------------------------------------


 soft charge-density along one line, spin component           1
         0         1         2         3         4         5         6         7         8         9
 total charge-density along one line
 
 pseudopotential strength for first ion, spin component:           1
 10.222  13.594   0.000  -0.000   0.000  -0.000   0.000  -0.001
 13.594  18.076   0.000  -0.000   0.000  -0.000   0.000  -0.001
  0.000   0.000  -4.352  -0.000  -0.000   8.513   0.000   0.001
 -0.000  -0.000  -0.000  -4.344  -0.000   0.000   8.502   0.000
  0.000   0.000  -0.000  -0.000  -4.352   0.001   0.000   8.513
 -0.000  -0.000   8.513   0.000   0.001 -18.786  -0.000  -0.001
  0.000   0.000   0.000   8.502   0.000  -0.000 -18.776  -0.000
 -0.001  -0.001   0.001   0.000   8.513  -0.001  -0.000 -18.787
 total augmentation occupancy for first ion, spin component:           1
  8.359  -3.741   0.002   0.000   0.032   0.000   0.000   0.005
 -3.741   1.730  -0.002  -0.000  -0.016  -0.000  -0.000  -0.002
  0.002  -0.002   1.840  -0.000   0.012   0.174   0.000   0.002
  0.000  -0.000  -0.000   1.223  -0.000   0.000   0.078   0.000
  0.032  -0.016   0.012  -0.000   1.839   0.002   0.000   0.174
  0.000  -0.000   0.174   0.000   0.002   0.018   0.000   0.000
  0.000  -0.000   0.000   0.078   0.000   0.000   0.005   0.000
  0.005  -0.002   0.002   0.000   0.174   0.000   0.000   0.018


------------------------ aborting loop because EDIFF is reached ----------------------------------------


    CHARGE:  cpu time    0.4007: real time    0.4014
    FORLOC:  cpu time    0.0272: real time    0.0272
    FORNL :  cpu time    1.9654: real time    1.9668
    STRESS:  cpu time    3.2989: real time    3.3023
    FORCOR:  cpu time    0.1207: real time    0.1207
    FORHAR:  cpu time    0.0484: real time    0.0485
    MIXING:  cpu time    0.0035: real time    0.0035
    OFIELD:  cpu time    0.0001: real time    0.0001

  FORCE on cell =-STRESS in cart. coord.  units (eV):
  Direction    XX          YY          ZZ          XY          YZ          ZX
  --------------------------------------------------------------------------------------
  Alpha Z    82.54348    82.54348    82.54348
  Ewald   41234.49768 41234.48933-47952.46995     2.31893    -0.01622     0.01180
  Hartree 40516.66446 40516.64763-39998.59345     0.41662    -0.01795     0.00884
  E(xc)    -777.15531  -777.15578  -804.23511     0.00711     0.00000     0.00001
  Local  -83988.80775-83988.77478 85337.38528    -2.31351     0.03617    -0.01943
  n-local  -203.93540  -203.93168  -194.69333     0.01750     0.00094     0.00001
  augment   -12.38097   -12.38086   -14.04728    -0.00353    -0.00014     0.00002
  Kinetic  3164.11760  3164.13102  3596.27966    -0.35054    -0.00693    -0.00180
  Fock        0.00000     0.00000     0.00000     0.00000     0.00000     0.00000
  -------------------------------------------------------------------------------------
  Total      15.54378    15.56838    52.16930     0.09260    -0.00412    -0.00055
  in kB       9.50378     9.51882    31.89736     0.05662    -0.00252    -0.00034
  external pressure =       16.97 kB  Pullay stress =        0.00 kB


 VOLUME and BASIS-vectors are now :
 -----------------------------------------------------------------------------
  energy-cutoff  :      400.00
  volume of cell :     2620.42
      direct lattice vectors                 reciprocal lattice vectors
    12.300000191  0.000000000  0.000000000     0.081300812 -0.046939053  0.000000000
     6.150000804 10.652112223  0.000000000     0.000000000  0.093878095  0.000000000
     0.000000000  0.000000000 20.000000000     0.000000000  0.000000000  0.050000000

  length of vectors
    12.300000191 12.300000191 20.000000000     0.093878095  0.093878095  0.050000000


 FORCES acting on ions
    electron-ion (+dipol)            ewald-force                    non-local-force                 convergence-correction
 -----------------------------------------------------------------------------------------------
   0.829E+00 -.846E+00 0.279E+01   -.130E+01 0.763E+00 -.278E+01   -.207E+00 0.468E-01 -.197E-03   0.417E-02 0.101E-02 0.698E-03
   0.118E+01 -.853E+00 0.279E+01   -.103E+01 0.778E+00 -.278E+01   -.582E-01 0.452E-01 -.173E-03   0.155E-02 0.625E-03 0.791E-05
   0.365E+01 0.642E+01 0.381E+01   -.369E+01 -.649E+01 -.377E+01   -.111E+00 0.771E-01 -.716E-01   -.706E-03 0.271E-02 0.182E-03
   -.509E-01 0.129E+02 0.480E+01   0.514E-01 -.131E+02 -.494E+01   0.326E-02 0.131E-01 0.111E+00   -.169E-02 0.403E-02 0.345E-04
   -.399E+01 0.642E+01 0.381E+01   0.406E+01 -.649E+01 -.377E+01   0.140E+00 0.804E-01 -.705E-01   -.220E-02 0.314E-02 0.454E-03
   0.253E-01 0.155E+01 0.279E+01   -.325E-01 -.135E+01 -.278E+01   -.127E-02 -.102E+00 -.256E-03   0.139E-02 -.746E-03 0.397E-03
   0.116E+02 0.670E+01 0.489E+01   -.113E+02 -.651E+01 -.494E+01   0.108E+00 0.644E-01 0.527E-01   0.850E-03 -.237E-03 -.738E-04
   0.209E+02 0.362E+02 0.186E+02   -.214E+02 -.371E+02 -.190E+02   0.640E+00 0.654E+00 0.546E+00   0.147E-02 0.289E-02 0.107E-02
   -.209E+02 0.363E+02 0.186E+02   0.215E+02 -.371E+02 -.190E+02   -.637E+00 0.653E+00 0.545E+00   -.444E-02 0.378E-02 0.226E-03
   -.116E+02 0.689E+01 0.489E+01   0.113E+02 -.675E+01 -.494E+01   -.110E+00 0.664E-01 0.521E-01   -.167E-02 0.106E-02 -.134E-04
   0.741E+01 -.329E-01 0.381E+01   -.749E+01 0.284E-01 -.377E+01   0.104E-01 -.138E+00 -.715E-01   0.257E-02 -.704E-03 0.364E-03
   0.418E+02 -.536E-01 0.186E+02   -.428E+02 0.116E-01 -.190E+02   0.885E+00 0.227E+00 0.545E+00   0.360E-02 0.174E-02 -.272E-03
   -.472E-02 0.161E-01 0.291E+03   0.818E-02 -.117E-01 -.346E+03   -.196E-03 -.463E-04 0.713E+01   -.232E-02 -.143E-02 0.725E-02
   -.418E+02 -.118E-01 0.186E+02   0.428E+02 -.287E-01 -.190E+02   -.885E+00 0.226E+00 0.546E+00   -.426E-02 -.345E-03 -.486E-03
   -.739E+01 -.782E-02 0.381E+01   0.747E+01 -.227E-03 -.377E+01   -.100E-01 -.137E+00 -.716E-01   -.104E-02 0.431E-03 0.544E-03
   0.111E+02 -.646E+01 0.480E+01   -.113E+02 0.657E+01 -.494E+01   0.135E-01 -.367E-02 0.111E+00   0.335E-02 -.257E-02 -.383E-03
   0.210E+02 -.362E+02 0.186E+02   -.214E+02 0.371E+02 -.190E+02   0.245E+00 -.879E+00 0.545E+00   0.982E-03 -.440E-02 0.108E-03
   -.210E+02 -.362E+02 0.186E+02   0.214E+02 0.371E+02 -.190E+02   -.245E+00 -.882E+00 0.546E+00   -.218E-02 -.195E-03 0.171E-03
   -.112E+02 -.642E+01 0.480E+01   0.113E+02 0.653E+01 -.494E+01   -.106E-01 -.667E-02 0.111E+00   -.354E-02 -.818E-03 -.681E-04
   -.892E-02 -.149E+01 0.282E+01   0.818E-02 0.157E+01 -.278E+01   0.106E-02 -.849E-01 -.150E-01   0.722E-03 -.233E-02 0.599E-03
   0.372E+01 -.661E+01 0.381E+01   -.378E+01 0.669E+01 -.377E+01   0.143E+00 0.855E-01 -.713E-01   0.153E-02 -.389E-02 0.489E-03
   0.564E-02 -.133E+02 0.489E+01   -.325E-01 0.129E+02 -.494E+01   0.184E-01 -.148E+00 0.523E-01   0.661E-03 -.225E-02 0.143E-03
   -.375E+01 -.638E+01 0.381E+01   0.379E+01 0.645E+01 -.377E+01   -.123E+00 0.595E-01 -.716E-01   -.205E-02 -.464E-03 0.545E-04
   -.131E+01 0.740E+00 0.282E+01   0.138E+01 -.778E+00 -.278E+01   -.720E-01 0.431E-01 -.149E-01   -.140E-02 0.199E-02 0.459E-03
   0.124E+01 0.705E+00 0.282E+01   -.130E+01 -.740E+00 -.278E+01   0.767E-01 0.443E-01 -.148E-01   0.122E-02 0.460E-03 0.689E-03
   -.841E+00 -.962E+00 0.250E+01   0.102E+01 0.106E+01 -.250E+01   0.468E-01 -.231E-01 -.102E-01   0.132E-02 -.836E-03 0.321E-03
   0.521E+01 0.404E+01 0.341E+01   -.505E+01 -.427E+01 -.338E+01   -.669E-01 0.447E-02 -.238E-01   0.171E-03 0.142E-02 -.106E-03
   0.603E+01 0.171E+02 0.688E+01   -.577E+01 -.171E+02 -.650E+01   -.640E-01 0.161E+00 -.122E+00   0.479E-03 0.175E-02 0.386E-03
   -.617E+01 0.172E+02 0.688E+01   0.590E+01 -.171E+02 -.650E+01   0.709E-01 0.160E+00 -.122E+00   -.203E-02 0.409E-02 0.271E-03
   -.614E+01 0.502E+01 0.341E+01   0.615E+01 -.533E+01 -.338E+01   0.115E+00 0.259E-01 -.241E-01   -.138E-02 0.342E-02 0.473E-03
   0.616E+01 0.249E+01 0.341E+01   -.627E+01 -.224E+01 -.338E+01   -.369E-01 -.671E-01 -.238E-01   0.355E-02 -.396E-03 0.264E-03
   0.283E+02 0.163E+02 0.126E+02   -.286E+02 -.165E+02 -.131E+02   -.159E+00 -.917E-01 0.145E+00   0.154E-02 0.169E-04 0.230E-03
   -.318E-01 0.878E+02 0.586E+02   0.233E-01 -.922E+02 -.663E+02   -.138E-02 -.637E+00 0.331E+01   0.187E-02 0.493E-02 0.133E-02
   -.283E+02 0.164E+02 0.126E+02   0.286E+02 -.166E+02 -.131E+02   0.153E+00 -.890E-01 0.146E+00   -.386E-02 0.169E-02 -.375E-05
   -.608E+01 0.256E+01 0.341E+01   0.620E+01 -.231E+01 -.338E+01   0.391E-01 -.640E-01 -.238E-01   -.806E-03 0.133E-03 0.500E-03
   0.179E+02 -.333E+01 0.688E+01   -.177E+02 0.351E+01 -.650E+01   0.107E+00 -.136E+00 -.122E+00   0.274E-02 -.145E-02 -.204E-03
   0.760E+02 -.439E+02 0.586E+02   -.799E+02 0.461E+02 -.663E+02   -.554E+00 0.319E+00 0.330E+01   0.435E-02 -.121E-02 0.275E-02
   -.760E+02 -.439E+02 0.586E+02   0.799E+02 0.461E+02 -.663E+02   0.554E+00 0.319E+00 0.330E+01   -.388E-02 -.471E-02 0.477E-03
   -.179E+02 -.329E+01 0.688E+01   0.177E+02 0.348E+01 -.650E+01   -.106E+00 -.138E+00 -.121E+00   -.199E-02 -.816E-03 -.104E-04
   0.312E-02 -.623E+00 0.293E+01   -.428E-02 0.860E+00 -.290E+01   0.481E-03 -.154E+00 -.520E-01   0.848E-03 -.244E-02 0.347E-03
   0.118E+02 -.139E+02 0.688E+01   -.119E+02 0.136E+02 -.650E+01   0.174E+00 -.132E-01 -.121E+00   0.378E-02 -.319E-02 0.316E-03
   0.255E-01 -.326E+02 0.126E+02   -.219E-01 0.330E+02 -.131E+02   0.166E-02 0.173E+00 0.145E+00   -.975E-03 -.246E-02 -.986E-04
   -.118E+02 -.138E+02 0.688E+01   0.119E+02 0.135E+02 -.650E+01   -.172E+00 -.230E-01 -.121E+00   -.202E-02 -.913E-03 0.135E-03
   -.386E+01 -.222E+01 0.282E+01   0.380E+01 0.218E+01 -.286E+01   -.189E-01 -.113E-01 0.129E-01   -.268E-02 -.120E-02 0.571E-03
   0.383E+01 -.225E+01 0.282E+01   -.377E+01 0.221E+01 -.286E+01   0.203E-01 -.112E-01 0.130E-01   0.284E-02 -.244E-02 0.283E-03
   0.169E+01 -.664E+01 0.341E+01   -.195E+01 0.661E+01 -.338E+01   0.124E+00 0.606E-01 -.240E-01   0.346E-02 -.357E-02 0.473E-03
   -.101E+01 -.650E+01 0.341E+01   0.128E+01 0.647E+01 -.338E+01   -.398E-01 0.642E-01 -.238E-01   -.180E-03 -.961E-03 0.885E-04
   -.571E+00 0.315E+00 0.293E+01   0.774E+00 -.434E+00 -.290E+01   -.133E+00 0.767E-01 -.518E-01   -.241E-02 0.167E-02 0.148E-03
   -.462E-01 0.443E+01 0.282E+01   0.417E-01 -.436E+01 -.286E+01   0.552E-03 0.224E-01 0.130E-01   -.149E-02 0.347E-02 0.376E-03
   0.392E+00 0.166E+00 0.294E+01   -.599E+00 -.293E+00 -.290E+01   0.131E+00 0.723E-01 -.532E-01   0.112E-02 -.846E-03 0.538E-03
   -.811E-02 0.242E-01 -.722E+03   0.115E-01 -.162E-01 0.846E+03   0.323E-02 -.110E-01 -.638E+02   -.705E-02 -.107E-02 -.171E-01
 -----------------------------------------------------------------------------------------------
   0.359E-02 0.952E-02 0.440E+02   0.505E-15 -.278E-12 -.796E-12   0.401E-02 -.687E-02 -.440E+02   -.612E-02 -.244E-02 0.542E-02
 
 
 POSITION                                       TOTAL-FORCE (eV/Angst)
 -----------------------------------------------------------------------------------
      0.01000      0.00000      8.35995        -0.677029     -0.034908      0.009240
      2.46000      0.00000      8.35995         0.096904     -0.029627      0.009500
      4.92000      0.00000      8.35995        -0.157417      0.013635     -0.026096
      7.38000      0.00000      8.35995         0.001997     -0.207146     -0.027023
      9.84000      0.00000      8.35995         0.207140      0.019164     -0.026013
      1.23000      2.13042      8.35995        -0.007142      0.089473      0.009382
      3.69000      2.13042      8.35995         0.435372      0.251765     -0.000001
      6.15000      2.13042      8.35995         0.098389     -0.204838      0.165058
      8.61000      2.13042      8.35995        -0.084431     -0.206802      0.165565
     11.07000      2.13042      8.35995        -0.433598      0.214399     -0.000025
      2.46000      4.26084      8.35995        -0.068450     -0.142719     -0.026125
      4.92000      4.26084      8.35995        -0.129397      0.186191      0.165197
      7.38000      4.26084      8.35995         0.000914      0.002936    -48.161420
      9.84000      4.26084      8.35995         0.128128      0.185515      0.165114
     12.30000      4.26084      8.35995         0.068274     -0.144307     -0.026037
      3.69000      6.39127      8.35995        -0.180898      0.106223     -0.026913
      6.15000      6.39127      8.35995        -0.222002      0.022263      0.164881
      8.61000      6.39127      8.35995         0.224369      0.018893      0.165123
     11.07000      6.39127      8.35995         0.181359      0.103721     -0.027091
     13.53000      6.39127      8.35995         0.001023     -0.011463      0.017842
      4.92000      8.52169      8.35995         0.085137      0.158846     -0.025979
      7.38000      8.52169      8.35995        -0.007867     -0.522151      0.000019
      9.84000      8.52169      8.35995        -0.086723      0.130018     -0.026118
     12.30000      8.52169      8.35995        -0.006971      0.006717      0.017924
     14.76000      8.52169      8.35995         0.018679      0.009530      0.017774
      1.23000      0.71014      8.36012         0.224928      0.070381     -0.006076
      3.69000      0.71014      8.36012         0.093105     -0.226597      0.010208
      6.15000      0.71014      8.36012         0.194127      0.250897      0.257256
      8.61000      0.71014      8.36012        -0.197150      0.257156      0.256469
     11.07000      0.71014      8.36012         0.116299     -0.281400      0.010131
      2.46000      2.84056      8.36012        -0.147951      0.187552      0.010162
      4.92000      2.84056      8.36012        -0.447632     -0.257300     -0.355511
      7.38000      2.84056      8.36012        -0.007967     -5.073126     -4.346301
      9.84000      2.84056      8.36012         0.431099     -0.252586     -0.355138
     12.30000      2.84056      8.36012         0.156818      0.191397      0.010016
      3.69000      4.97099      8.36012         0.314590      0.041756      0.257084
      6.15000      4.97099      8.36012        -4.398111      2.535849     -4.348829
      8.61000      4.97099      8.36012         4.398164      2.538093     -4.349643
     11.07000      4.97099      8.36012        -0.313829      0.043434      0.257151
     13.53000      4.97099      8.36012         0.000141      0.080781     -0.022139
      4.92000      7.10141      8.36012         0.124372     -0.290024      0.256873
      7.38000      7.10141      8.36012         0.004215      0.505339     -0.355161
      9.84000      7.10141      8.36012        -0.120492     -0.292412      0.257059
     12.30000      7.10141      8.36012        -0.082325     -0.047811     -0.026433
     14.76000      7.10141      8.36012         0.081466     -0.050922     -0.026403
      6.15000      9.23183      8.36012        -0.130810      0.023337      0.010201
      8.61000      9.23183      8.36012         0.234798      0.036129      0.010054
     11.07000      9.23183      8.36012         0.067088     -0.040771     -0.022088
     13.53000      9.23183      8.36012        -0.005456      0.094527     -0.026459
     15.99000      9.23183      8.36012        -0.074787     -0.054872     -0.022054
      7.38000      4.26084      9.36012        -0.000463     -0.004136     59.985791
 -----------------------------------------------------------------------------------
    total drift:                                0.001471      0.000221     -0.000487


--------------------------------------------------------------------------------------------------------



  FREE ENERGIE OF THE ION-ELECTRON SYSTEM (eV)
  ---------------------------------------------------
  free  energy   TOTEN  =      -454.33692568 eV

  energy  without entropy=     -454.33680552  energy(sigma->0) =     -454.33686560
 


--------------------------------------------------------------------------------------------------------


    POTLOK:  cpu time    0.1799: real time    0.1799


--------------------------------------------------------------------------------------------------------


 stress matrix after NEB project (eV)
     15.54378      0.09260     -0.00055
      0.09260     15.56838     -0.00412
     -0.00055     -0.00412     52.16930
  FORCES: max atom, RMS    59.985791   10.897438
  FORCE total and by dimension   77.823274   59.985791
  Stress total and by dimension   56.618340   52.169300
     LOOP+:  cpu time   42.2678: real time   42.3235
    4ORBIT:  cpu time    0.0000: real time    0.0000

 total amount of memory used by VASP MPI-rank0    90113. kBytes
=======================================================================

   base      :      30000. kBytes
   nonl-proj :       8674. kBytes
   fftplans  :      26248. kBytes
   grid      :      14579. kBytes
   one-center:         21. kBytes
   wavefun   :      10591. kBytes
 
  
  
 General timing and accounting informations for this job:
 ========================================================
  
                  Total CPU time used (sec):       49.949
                            User time (sec):       46.553
                          System time (sec):        3.396
                         Elapsed time (sec):       50.040
  
                   Maximum memory used (kb):      365588.
                   Average memory used (kb):           0.
  
                          Minor page faults:       102891
                          Major page faults:            0
                 Voluntary context switches:         1199
