<?xml version="1.0" encoding="ISO-8859-1"?>
<modeling>
 <generator>
  <i name="program" type="string">vasp </i>
  <i name="version" type="string">5.4.4.18Apr17-6-g9f103f2a35  </i>
  <i name="subversion" type="string">(build Aug 13 2022 23:40:43) complex            parallel </i>
  <i name="platform" type="string">LinuxIFC </i>
  <i name="date" type="string">2024 11 10 </i>
  <i name="time" type="string">03:53:47 </i>
 </generator>
 <incar>
  <i type="int" name="ISTART">     1</i>
  <i type="string" name="PREC">accurate</i>
  <i type="string" name="ALGO"> F          N:DAV,fine,slow</i>
  <i type="logical" name="ADDGRID"> T  </i>
  <i type="int" name="ISPIN">     1</i>
  <i type="int" name="ICHARG">     1</i>
  <i type="int" name="NELM">   300</i>
  <i type="int" name="IBRION">    -1</i>
  <i name="EDIFF">      0.00001000</i>
  <i name="EDIFFG">     -0.00100000</i>
  <i type="int" name="NSW">     1</i>
  <i type="int" name="ISIF">     2</i>
  <i name="ENCUT">    400.00000000</i>
  <i type="logical" name="LREAL"> F  </i>
  <i type="int" name="ISMEAR">     0</i>
  <i name="SIGMA">      0.05000000</i>
  <i type="logical" name="LWAVE"> F  </i>
  <i type="logical" name="LCHARG"> F  </i>
  <v type="int" name="KPOINT_BSE">    -1     0     0     0</v>
  <i type="int" name="NELM">   300</i>
 </incar>
 <structure name="primitive_cell" >
  <crystal>
   <varray name="basis" >
    <v>      12.30000019       0.00000000       0.00000000 </v>
    <v>       6.15000080      10.65211222       0.00000000 </v>
    <v>       0.00000000       0.00000000      20.00000000 </v>
   </varray>
   <i name="volume">   2620.41964732 </i>
   <varray name="rec_basis" >
    <v>       0.08130081      -0.04693905       0.00000000 </v>
    <v>       0.00000000       0.09387809       0.00000000 </v>
    <v>       0.00000000       0.00000000       0.05000000 </v>
   </varray>
  </crystal>
  <varray name="positions" >
   <v>       0.00000000       0.00000000       0.41799748 </v>
   <v>       0.06666667       0.06666660       0.41800609 </v>
   <v>      -0.13333333       0.06666660       0.41800609 </v>
   <v>       0.06666667      -0.13333340       0.41800609 </v>
   <v>      -0.20000000       0.20000000       0.41799748 </v>
   <v>       0.20000000      -0.20000000       0.41799748 </v>
   <v>       0.20000000       0.00000000       0.41799748 </v>
   <v>      -0.20000000       0.00000000       0.41799748 </v>
   <v>       0.00000000       0.20000000       0.41799748 </v>
   <v>       0.00000000      -0.20000000       0.41799748 </v>
   <v>      -0.13333333       0.26666660       0.41800609 </v>
   <v>       0.26666667      -0.13333340       0.41800609 </v>
   <v>      -0.13333333      -0.13333340       0.41800609 </v>
   <v>       0.06666667       0.26666660       0.41800609 </v>
   <v>      -0.33333333       0.26666660       0.41800609 </v>
   <v>       0.26666667       0.06666660       0.41800609 </v>
   <v>      -0.33333333       0.06666660       0.41800609 </v>
   <v>       0.26666667      -0.33333340       0.41800609 </v>
   <v>       0.06666667      -0.33333340       0.41800609 </v>
   <v>      -0.40000000       0.20000000       0.41799748 </v>
   <v>       0.40000000      -0.20000000       0.41799748 </v>
   <v>      -0.20000000       0.40000000       0.41799748 </v>
   <v>       0.20000000      -0.40000000       0.41799748 </v>
   <v>      -0.20000000      -0.20000000       0.41799748 </v>
   <v>       0.20000000       0.20000000       0.41749748 </v>
   <v>      -0.40000000       0.40000000       0.41799748 </v>
   <v>       0.40000000      -0.40000000       0.41799748 </v>
   <v>       0.40000000       0.00000000       0.41799748 </v>
   <v>      -0.40000000       0.00000000       0.41799748 </v>
   <v>       0.00000000       0.40000000       0.41799748 </v>
   <v>       0.00000000      -0.40000000       0.41799748 </v>
   <v>      -0.13333333       0.46666660       0.41800609 </v>
   <v>      -0.33333333       0.46666660       0.41800609 </v>
   <v>       0.46666667      -0.13333340       0.41800609 </v>
   <v>       0.46666667      -0.33333340       0.41800609 </v>
   <v>      -0.33333333      -0.13333340       0.41800609 </v>
   <v>      -0.13333333      -0.33333340       0.41800609 </v>
   <v>       0.26666667       0.26666660       0.41800609 </v>
   <v>       0.46666667       0.26666660       0.41800609 </v>
   <v>       0.26666667       0.46666660       0.41800609 </v>
   <v>       0.06666667       0.46666660       0.41800609 </v>
   <v>       0.46666667       0.46666660       0.41800609 </v>
   <v>       0.46666667       0.06666660       0.41800609 </v>
   <v>       0.40000000       0.40000000       0.41799748 </v>
   <v>      -0.40000000      -0.40000000       0.41799748 </v>
   <v>       0.40000000       0.20000000       0.41799748 </v>
   <v>      -0.40000000      -0.20000000       0.41799748 </v>
   <v>       0.20000000       0.40000000       0.41799748 </v>
   <v>      -0.20000000      -0.40000000       0.41799748 </v>
   <v>       0.40000000       0.40000000       0.46800609 </v>
   <v>      -0.33333333      -0.33333340       0.41800609 </v>
  </varray>
 </structure>
 <varray name="primitive_index" >
  <v type="int" >        1 </v>
  <v type="int" >       26 </v>
  <v type="int" >       30 </v>
  <v type="int" >       46 </v>
  <v type="int" >       10 </v>
  <v type="int" >       22 </v>
  <v type="int" >        2 </v>
  <v type="int" >        5 </v>
  <v type="int" >        6 </v>
  <v type="int" >       21 </v>
  <v type="int" >       35 </v>
  <v type="int" >       47 </v>
  <v type="int" >       50 </v>
  <v type="int" >       31 </v>
  <v type="int" >       34 </v>
  <v type="int" >       27 </v>
  <v type="int" >       29 </v>
  <v type="int" >       42 </v>
  <v type="int" >       41 </v>
  <v type="int" >        9 </v>
  <v type="int" >       23 </v>
  <v type="int" >       15 </v>
  <v type="int" >       17 </v>
  <v type="int" >       25 </v>
  <v type="int" >        7 </v>
  <v type="int" >       14 </v>
  <v type="int" >       18 </v>
  <v type="int" >        3 </v>
  <v type="int" >        4 </v>
  <v type="int" >       11 </v>
  <v type="int" >       16 </v>
  <v type="int" >       40 </v>
  <v type="int" >       39 </v>
  <v type="int" >       48 </v>
  <v type="int" >       43 </v>
  <v type="int" >       49 </v>
  <v type="int" >       45 </v>
  <v type="int" >       32 </v>
  <v type="int" >       33 </v>
  <v type="int" >       37 </v>
  <v type="int" >       36 </v>
  <v type="int" >       38 </v>
  <v type="int" >       28 </v>
  <v type="int" >       13 </v>
  <v type="int" >       19 </v>
  <v type="int" >        8 </v>
  <v type="int" >       24 </v>
  <v type="int" >       12 </v>
  <v type="int" >       20 </v>
  <v type="int" >       51 </v>
  <v type="int" >       44 </v>
 </varray>
 <kpoints>
  <generation param="Gamma">
   <v type="int" name="divisions">       3        3        1 </v>
   <v name="usershift">      0.00000000       0.00000000       0.00000000 </v>
   <v name="genvec1">      0.33333333      -0.00000000       0.00000000 </v>
   <v name="genvec2">      0.00000000       0.33333333       0.00000000 </v>
   <v name="genvec3">      0.00000000       0.00000000       1.00000000 </v>
   <v name="shift">      0.00000000       0.00000000       0.00000000 </v>
  </generation>
  <varray name="kpointlist" >
   <v>       0.00000000       0.00000000       0.00000000 </v>
   <v>       0.33333333       0.00000000       0.00000000 </v>
   <v>       0.33333333       0.33333333       0.00000000 </v>
   <v>      -0.33333333       0.33333333       0.00000000 </v>
  </varray>
  <varray name="weights" >
   <v>       0.11111111 </v>
   <v>       0.44444444 </v>
   <v>       0.22222222 </v>
   <v>       0.22222222 </v>
  </varray>
 </kpoints>
 <parameters>
  <separator name="general" >
   <i type="string" name="SYSTEM"></i>
   <i type="logical" name="LCOMPAT"> F  </i>
  </separator>
  <separator name="electronic" >
   <i type="string" name="PREC">accura</i>
   <i name="ENMAX">    400.00000000</i>
   <i name="ENAUG">    644.87300000</i>
   <i name="EDIFF">      0.00001000</i>
   <i type="int" name="IALGO">    68</i>
   <i type="int" name="IWAVPR">    10</i>
   <i type="int" name="NBANDS">   132</i>
   <i name="NELECT">    206.00000000</i>
   <i type="int" name="TURBO">     0</i>
   <i type="int" name="IRESTART">     0</i>
   <i type="int" name="NREBOOT">     0</i>
   <i type="int" name="NMIN">     0</i>
   <i name="EREF">      0.00000000</i>
   <separator name="electronic smearing" >
    <i type="int" name="ISMEAR">     0</i>
    <i name="SIGMA">      0.05000000</i>
    <i name="KSPACING">      0.50000000</i>
    <i type="logical" name="KGAMMA"> T  </i>
   </separator>
   <separator name="electronic projectors" >
    <i type="logical" name="LREAL"> F  </i>
    <v name="ROPT">      0.00000000      0.00000000</v>
    <i type="int" name="LMAXPAW">  -100</i>
    <i type="int" name="LMAXMIX">     2</i>
    <i type="logical" name="NLSPLINE"> F  </i>
   </separator>
   <separator name="electronic startup" >
    <i type="int" name="ISTART">     1</i>
    <i type="int" name="ICHARG">     1</i>
    <i type="int" name="INIWAV">     1</i>
   </separator>
   <separator name="electronic spin" >
    <i type="int" name="ISPIN">     1</i>
    <i type="logical" name="LNONCOLLINEAR"> F  </i>
    <v name="MAGMOM">      1.00000000      1.00000000      1.00000000      1.00000000      1.00000000      1.00000000      1.00000000      1.00000000      1.00000000      1.00000000      1.00000000      1.00000000      1.00000000      1.00000000      1.00000000      1.00000000      1.00000000      1.00000000      1.00000000      1.00000000
      1.00000000      1.00000000      1.00000000      1.00000000      1.00000000      1.00000000      1.00000000      1.00000000      1.00000000      1.00000000      1.00000000      1.00000000      1.00000000      1.00000000      1.00000000      1.00000000      1.00000000      1.00000000      1.00000000      1.00000000
      1.00000000      1.00000000      1.00000000      1.00000000      1.00000000      1.00000000      1.00000000      1.00000000      1.00000000      1.00000000      1.00000000</v>
    <i name="NUPDOWN">     -1.00000000</i>
    <i type="logical" name="LSORBIT"> F  </i>
    <v name="SAXIS">      0.00000000      0.00000000      1.00000000</v>
    <i type="logical" name="LSPIRAL"> F  </i>
    <v name="QSPIRAL">      0.00000000      0.00000000      0.00000000</v>
    <i type="logical" name="LZEROZ"> F  </i>
   </separator>
   <separator name="electronic exchange-correlation" >
    <i type="logical" name="LASPH"> F  </i>
    <i type="logical" name="LMETAGGA"> F  </i>
   </separator>
   <separator name="electronic convergence" >
    <i type="int" name="NELM">   300</i>
    <i type="int" name="NELMDL">     0</i>
    <i type="int" name="NELMIN">     2</i>
    <i name="ENINI">    400.00000000</i>
    <separator name="electronic convergence detail" >
     <i type="logical" name="LDIAG"> T  </i>
     <i type="logical" name="LSUBROT"> F  </i>
     <i name="WEIMIN">      0.00000000</i>
     <i name="EBREAK">      0.00000002</i>
     <i name="DEPER">      0.30000000</i>
     <i type="int" name="NRMM">     4</i>
     <i name="TIME">      0.40000000</i>
    </separator>
   </separator>
   <separator name="electronic mixer" >
    <i name="AMIX">      0.40000000</i>
    <i name="BMIX">      1.00000000</i>
    <i name="AMIN">      0.10000000</i>
    <i name="AMIX_MAG">      1.60000000</i>
    <i name="BMIX_MAG">      1.00000000</i>
    <separator name="electronic mixer details" >
     <i type="int" name="IMIX">     4</i>
     <i type="logical" name="MIXFIRST"> F  </i>
     <i type="int" name="MAXMIX">   -45</i>
     <i name="WC">    100.00000000</i>
     <i type="int" name="INIMIX">     1</i>
     <i type="int" name="MIXPRE">     1</i>
     <i type="int" name="MREMOVE">     5</i>
    </separator>
   </separator>
   <separator name="electronic dipolcorrection" >
    <i type="logical" name="LDIPOL"> F  </i>
    <i type="logical" name="LMONO"> F  </i>
    <i type="int" name="IDIPOL">     0</i>
    <i name="EPSILON">      1.00000000</i>
    <v name="DIPOL">   -100.00000000   -100.00000000   -100.00000000</v>
    <i name="EFIELD">      0.00000000</i>
   </separator>
  </separator>
  <separator name="grids" >
   <i type="int" name="NGX">    80</i>
   <i type="int" name="NGY">    80</i>
   <i type="int" name="NGZ">   140</i>
   <i type="int" name="NGXF">   160</i>
   <i type="int" name="NGYF">   160</i>
   <i type="int" name="NGZF">   280</i>
   <i type="logical" name="ADDGRID"> T  </i>
  </separator>
  <separator name="ionic" >
   <i type="int" name="NSW">     1</i>
   <i type="int" name="IBRION">    -1</i>
   <i type="int" name="MDALGO">     0</i>
   <i type="int" name="ISIF">     2</i>
   <i name="PSTRESS">      0.00000000</i>
   <i name="EDIFFG">     -0.00100000</i>
   <i type="int" name="NFREE">     0</i>
   <i name="POTIM">      0.50000000</i>
   <i name="SMASS">     -3.00000000</i>
   <i name="SCALEE">      1.00000000</i>
  </separator>
  <separator name="ionic md" >
   <i name="TEBEG">      0.00010000</i>
   <i name="TEEND">      0.00010000</i>
   <i type="int" name="NBLOCK">     1</i>
   <i type="int" name="KBLOCK">     1</i>
   <i type="int" name="NPACO">   256</i>
   <i name="APACO">     16.00000000</i>
  </separator>
  <separator name="symmetry" >
   <i type="int" name="ISYM">     2</i>
   <i name="SYMPREC">      0.00001000</i>
  </separator>
  <separator name="dos" >
   <i type="int" name="LORBIT">     0</i>
   <v name="RWIGS">     -1.00000000     -1.00000000</v>
   <i type="int" name="NEDOS">   301</i>
   <i name="EMIN">     10.00000000</i>
   <i name="EMAX">    -10.00000000</i>
   <i name="EFERMI">      0.00000000</i>
  </separator>
  <separator name="writing" >
   <i type="int" name="NWRITE">     2</i>
   <i type="logical" name="LWAVE"> F  </i>
   <i type="logical" name="LDOWNSAMPLE"> F  </i>
   <i type="logical" name="LCHARG"> F  </i>
   <i type="logical" name="LPARD"> F  </i>
   <i type="logical" name="LVTOT"> F  </i>
   <i type="logical" name="LVHAR"> F  </i>
   <i type="logical" name="LELF"> F  </i>
   <i type="logical" name="LOPTICS"> F  </i>
   <v name="STM">      0.00000000      0.00000000      0.00000000      0.00000000      0.00000000      0.00000000      0.00000000</v>
  </separator>
  <separator name="performance" >
   <i type="int" name="NPAR">     6</i>
   <i type="int" name="NSIM">     4</i>
   <i type="int" name="NBLK">    -1</i>
   <i type="logical" name="LPLANE"> T  </i>
   <i type="logical" name="LSCALAPACK"> T  </i>
   <i type="logical" name="LSCAAWARE"> F  </i>
   <i type="logical" name="LSCALU"> F  </i>
   <i type="logical" name="LASYNC"> F  </i>
   <i type="logical" name="LORBITALREAL"> F  </i>
  </separator>
  <separator name="miscellaneous" >
   <i type="int" name="IDIOT">     3</i>
   <i type="int" name="ISPECIAL">     0</i>
   <i type="logical" name="LMUSIC"> F  </i>
   <v name="POMASS">     12.01100000     16.00000000</v>
   <v name="DARWINR">      0.00000000      0.00000000</v>
   <v name="DARWINV">      1.00000000      1.00000000</v>
   <i type="logical" name="LCORR"> T  </i>
  </separator>
  <i type="logical" name="GGA_COMPAT"> T  </i>
  <i type="logical" name="LBERRY"> F  </i>
  <i type="int" name="ICORELEVEL">     0</i>
  <i type="logical" name="LDAU"> F  </i>
  <i type="int" name="I_CONSTRAINED_M">     0</i>
  <separator name="electronic exchange-correlation" >
   <i type="string" name="GGA">--</i>
   <i type="int" name="VOSKOWN">     0</i>
   <i type="logical" name="LHFCALC"> F  </i>
   <i type="string" name="PRECFOCK"></i>
   <i type="logical" name="LSYMGRAD"> F  </i>
   <i type="logical" name="LHFONE"> F  </i>
   <i type="logical" name="LRHFCALC"> F  </i>
   <i type="logical" name="LTHOMAS"> F  </i>
   <i type="logical" name="LMODELHF"> F  </i>
   <i name="ENCUT4O">     -1.00000000</i>
   <i type="int" name="EXXOEP">     0</i>
   <i type="int" name="FOURORBIT">     0</i>
   <i name="AEXX">      0.00000000</i>
   <i name="HFALPHA">      0.00000000</i>
   <i name="MCALPHA">      0.00000000</i>
   <i name="ALDAX">      1.00000000</i>
   <i name="AGGAX">      1.00000000</i>
   <i name="ALDAC">      1.00000000</i>
   <i name="AGGAC">      1.00000000</i>
   <i type="int" name="NKREDX">     1</i>
   <i type="int" name="NKREDY">     1</i>
   <i type="int" name="NKREDZ">     1</i>
   <i type="logical" name="SHIFTRED"> F  </i>
   <i type="logical" name="ODDONLY"> F  </i>
   <i type="logical" name="EVENONLY"> F  </i>
   <i type="int" name="LMAXFOCK">     0</i>
   <i type="int" name="NMAXFOCKAE">     0</i>
   <i type="logical" name="LFOCKAEDFT"> F  </i>
   <i name="HFSCREEN">      0.00000000</i>
   <i name="HFSCREENC">      0.00000000</i>
   <i type="int" name="NBANDSGWLOW">     0</i>
  </separator>
  <separator name="vdW DFT" >
   <i type="logical" name="LUSE_VDW"> F  </i>
   <i name="Zab_VDW">     -0.84910000</i>
   <i name="PARAM1">      0.12340000</i>
   <i name="PARAM2">      1.00000000</i>
   <i name="PARAM3">      0.00000000</i>
  </separator>
  <separator name="model GW" >
   <i type="int" name="MODEL_GW">     0</i>
   <i name="MODEL_EPS0">     30.82846644</i>
   <i name="MODEL_ALPHA">      1.00000000</i>
  </separator>
  <separator name="linear response parameters" >
   <i type="logical" name="LEPSILON"> F  </i>
   <i type="logical" name="LRPA"> F  </i>
   <i type="logical" name="LNABLA"> F  </i>
   <i type="logical" name="LVEL"> F  </i>
   <i type="int" name="KINTER">     0</i>
   <i name="CSHIFT">      0.10000000</i>
   <i name="OMEGAMAX">     -1.00000000</i>
   <i name="DEG_THRESHOLD">      0.00200000</i>
   <i name="RTIME">     -0.10000000</i>
   <i name="WPLASMAI">      0.00000000</i>
   <v name="DFIELD">      0.00000000      0.00000000      0.00000000</v>
   <v name="WPLASMA">      0.00000000      0.00000000      0.00000000      0.00000000      0.00000000      0.00000000      0.00000000      0.00000000      0.00000000</v>
  </separator>
  <separator name="orbital magnetization" >
   <i type="logical" name="NUCIND"> F  </i>
   <v name="MAGPOS">      0.00000000      0.00000000      0.00000000</v>
   <i type="logical" name="LNICSALL"> T  </i>
   <i type="logical" name="ORBITALMAG"> F  </i>
   <i type="logical" name="LMAGBLOCH"> F  </i>
   <i type="logical" name="LCHIMAG"> F  </i>
   <i type="logical" name="LGAUGE"> T  </i>
   <i type="int" name="MAGATOM">     0</i>
   <v name="MAGDIPOL">      0.00000000      0.00000000      0.00000000</v>
   <v name="AVECCONST">      0.00000000      0.00000000      0.00000000</v>
  </separator>
  <separator name="response functions" >
   <i type="logical" name="LADDER"> F  </i>
   <i type="logical" name="LRPAFORCE"> F  </i>
   <i type="logical" name="LFXC"> F  </i>
   <i type="logical" name="LHARTREE"> T  </i>
   <i type="int" name="IBSE">     0</i>
   <v type="int" name="KPOINT">    -1     0     0     0</v>
   <i type="logical" name="LTCTE"> F  </i>
   <i type="logical" name="LTETE"> F  </i>
   <i type="logical" name="LTRIPLET"> F  </i>
   <i type="logical" name="LFXCEPS"> F  </i>
   <i type="logical" name="LFXHEG"> F  </i>
   <i type="int" name="NATURALO">     2</i>
   <i type="logical" name="L2ORDER"> F  </i>
   <i type="logical" name="LMP2LT"> F  </i>
   <i type="logical" name="LUSEW"> F  </i>
   <i name="ENCUTGW">     -2.00000000</i>
   <i name="ENCUTGWSOFT">     -2.00000000</i>
   <i name="ENCUTLF">     -1.00000000</i>
   <i type="int" name="LMAXMP2">    -1</i>
   <i name="SCISSOR">      0.00000000</i>
   <i type="int" name="NOMEGA">     0</i>
   <i type="int" name="NOMEGAR">     0</i>
   <i type="int" name="NBANDSGW">    -1</i>
   <i type="int" name="NBANDSO">    -1</i>
   <i type="int" name="NBANDSV">    -1</i>
   <i type="int" name="NELM">   300</i>
   <i type="int" name="NELMHF">     1</i>
   <i type="int" name="DIM">     3</i>
   <i type="int" name="ANTIRES">     0</i>
   <i name="OMEGAMAX">    -30.00000000</i>
   <i name="OMEGAMIN">    -30.00000000</i>
   <i name="OMEGATL">   -200.00000000</i>
   <i type="int" name="OMEGAGRID">   140</i>
   <i name="CSHIFT">     -0.10000000</i>
   <i type="logical" name="SELFENERGY"> F  </i>
   <i type="logical" name="LSPECTRAL"> F  </i>
   <i type="logical" name="LSPECTRALGW"> F  </i>
   <i type="logical" name="LSINGLES"> F  </i>
   <i type="logical" name="LFERMIGW"> F  </i>
   <i type="logical" name="ODDONLYGW"> F  </i>
   <i type="logical" name="EVENONLYGW"> F  </i>
   <i type="int" name="NKREDLFX">     1</i>
   <i type="int" name="NKREDLFY">     1</i>
   <i type="int" name="NKREDLFZ">     1</i>
   <i type="int" name="MAXMEM">  2800</i>
   <i type="int" name="TELESCOPE">     0</i>
   <i type="int" name="TAUPAR">     1</i>
   <i type="int" name="OMEGAPAR">    -1</i>
   <i name="LAMBDA">      1.00000000</i>
  </separator>
  <separator name="External order field" >
   <i name="OFIELD_KAPPA">      0.00000000</i>
   <v name="OFIELD_K">      0.00000000      0.00000000      0.00000000</v>
   <i name="OFIELD_Q6_NEAR">      0.00000000</i>
   <i name="OFIELD_Q6_FAR">      0.00000000</i>
   <i name="OFIELD_A">      0.00000000</i>
  </separator>
 </parameters>
 <atominfo>
  <atoms>      51 </atoms>
  <types>       2 </types>
  <array name="atoms" >
   <dimension dim="1">ion</dimension>
   <field type="string">element</field>
   <field type="int">atomtype</field>
   <set>
    <rc><c>C </c><c>   1</c></rc>
    <rc><c>C </c><c>   1</c></rc>
    <rc><c>C </c><c>   1</c></rc>
    <rc><c>C </c><c>   1</c></rc>
    <rc><c>C </c><c>   1</c></rc>
    <rc><c>C </c><c>   1</c></rc>
    <rc><c>C </c><c>   1</c></rc>
    <rc><c>C </c><c>   1</c></rc>
    <rc><c>C </c><c>   1</c></rc>
    <rc><c>C </c><c>   1</c></rc>
    <rc><c>C </c><c>   1</c></rc>
    <rc><c>C </c><c>   1</c></rc>
    <rc><c>C </c><c>   1</c></rc>
    <rc><c>C </c><c>   1</c></rc>
    <rc><c>C </c><c>   1</c></rc>
    <rc><c>C </c><c>   1</c></rc>
    <rc><c>C </c><c>   1</c></rc>
    <rc><c>C </c><c>   1</c></rc>
    <rc><c>C </c><c>   1</c></rc>
    <rc><c>C </c><c>   1</c></rc>
    <rc><c>C </c><c>   1</c></rc>
    <rc><c>C </c><c>   1</c></rc>
    <rc><c>C </c><c>   1</c></rc>
    <rc><c>C </c><c>   1</c></rc>
    <rc><c>C </c><c>   1</c></rc>
    <rc><c>C </c><c>   1</c></rc>
    <rc><c>C </c><c>   1</c></rc>
    <rc><c>C </c><c>   1</c></rc>
    <rc><c>C </c><c>   1</c></rc>
    <rc><c>C </c><c>   1</c></rc>
    <rc><c>C </c><c>   1</c></rc>
    <rc><c>C </c><c>   1</c></rc>
    <rc><c>C </c><c>   1</c></rc>
    <rc><c>C </c><c>   1</c></rc>
    <rc><c>C </c><c>   1</c></rc>
    <rc><c>C </c><c>   1</c></rc>
    <rc><c>C </c><c>   1</c></rc>
    <rc><c>C </c><c>   1</c></rc>
    <rc><c>C </c><c>   1</c></rc>
    <rc><c>C </c><c>   1</c></rc>
    <rc><c>C </c><c>   1</c></rc>
    <rc><c>C </c><c>   1</c></rc>
    <rc><c>C </c><c>   1</c></rc>
    <rc><c>C </c><c>   1</c></rc>
    <rc><c>C </c><c>   1</c></rc>
    <rc><c>C </c><c>   1</c></rc>
    <rc><c>C </c><c>   1</c></rc>
    <rc><c>C </c><c>   1</c></rc>
    <rc><c>C </c><c>   1</c></rc>
    <rc><c>C </c><c>   1</c></rc>
    <rc><c>O </c><c>   2</c></rc>
   </set>
  </array>
  <array name="atomtypes" >
   <dimension dim="1">type</dimension>
   <field type="int">atomspertype</field>
   <field type="string">element</field>
   <field>mass</field>
   <field>valence</field>
   <field type="string">pseudopotential</field>
   <set>
    <rc><c>  50</c><c>C </c><c>     12.01100000</c><c>      4.00000000</c><c>  PAW_PBE C 08Apr2002                   </c></rc>
    <rc><c>   1</c><c>O </c><c>     16.00000000</c><c>      6.00000000</c><c>  PAW_PBE O 08Apr2002                   </c></rc>
   </set>
  </array>
 </atominfo>
 <structure name="initialpos" >
  <crystal>
   <varray name="basis" >
    <v>      12.30000019       0.00000000       0.00000000 </v>
    <v>       6.15000080      10.65211222       0.00000000 </v>
    <v>       0.00000000       0.00000000      20.00000000 </v>
   </varray>
   <i name="volume">   2620.41964732 </i>
   <varray name="rec_basis" >
    <v>       0.08130081      -0.04693905       0.00000000 </v>
    <v>       0.00000000       0.09387809       0.00000000 </v>
    <v>       0.00000000       0.00000000       0.05000000 </v>
   </varray>
  </crystal>
  <varray name="positions" >
   <v>       0.00000000       0.00000000       0.41799748 </v>
   <v>       0.20000000       0.00000000       0.41799748 </v>
   <v>       0.40000000       0.00000000       0.41799748 </v>
   <v>       0.60000000       0.00000000       0.41799748 </v>
   <v>       0.80000000       0.00000000       0.41799748 </v>
   <v>       0.00000000       0.20000000       0.41799748 </v>
   <v>       0.20000000       0.20000000       0.41749748 </v>
   <v>       0.40000000       0.20000000       0.41799748 </v>
   <v>       0.60000000       0.20000000       0.41799748 </v>
   <v>       0.80000000       0.20000000       0.41799748 </v>
   <v>       0.00000000       0.40000000       0.41799748 </v>
   <v>       0.20000000       0.40000000       0.41799748 </v>
   <v>       0.40000000       0.40000000       0.41799748 </v>
   <v>       0.60000000       0.40000000       0.41799748 </v>
   <v>       0.80000000       0.40000000       0.41799748 </v>
   <v>       0.00000000       0.60000000       0.41799748 </v>
   <v>       0.20000000       0.60000000       0.41799748 </v>
   <v>       0.40000000       0.60000000       0.41799748 </v>
   <v>       0.60000000       0.60000000       0.41799748 </v>
   <v>       0.80000000       0.60000000       0.41799748 </v>
   <v>       0.00000000       0.80000000       0.41799748 </v>
   <v>       0.20000000       0.80000000       0.41799748 </v>
   <v>       0.40000000       0.80000000       0.41799748 </v>
   <v>       0.60000000       0.80000000       0.41799748 </v>
   <v>       0.80000000       0.80000000       0.41799748 </v>
   <v>       0.06666667       0.06666660       0.41800609 </v>
   <v>       0.26666667       0.06666660       0.41800609 </v>
   <v>       0.46666667       0.06666660       0.41800609 </v>
   <v>       0.66666667       0.06666660       0.41800609 </v>
   <v>       0.86666667       0.06666660       0.41800609 </v>
   <v>       0.06666667       0.26666660       0.41800609 </v>
   <v>       0.26666667       0.26666660       0.41800609 </v>
   <v>       0.46666667       0.26666660       0.41800609 </v>
   <v>       0.66666667       0.26666660       0.41800609 </v>
   <v>       0.86666667       0.26666660       0.41800609 </v>
   <v>       0.06666667       0.46666660       0.41800609 </v>
   <v>       0.26666667       0.46666660       0.41800609 </v>
   <v>       0.46666667       0.46666660       0.41800609 </v>
   <v>       0.66666667       0.46666660       0.41800609 </v>
   <v>       0.86666667       0.46666660       0.41800609 </v>
   <v>       0.06666667       0.66666660       0.41800609 </v>
   <v>       0.26666667       0.66666660       0.41800609 </v>
   <v>       0.46666667       0.66666660       0.41800609 </v>
   <v>       0.66666667       0.66666660       0.41800609 </v>
   <v>       0.86666667       0.66666660       0.41800609 </v>
   <v>       0.06666667       0.86666660       0.41800609 </v>
   <v>       0.26666667       0.86666660       0.41800609 </v>
   <v>       0.46666667       0.86666660       0.41800609 </v>
   <v>       0.66666667       0.86666660       0.41800609 </v>
   <v>       0.86666667       0.86666660       0.41800609 </v>
   <v>       0.40000000       0.40000000       0.46800609 </v>
  </varray>
  <varray name="velocities" >
   <v>       0.00000000       0.00000000       0.00000000 </v>
   <v>       0.00000000       0.00000000       0.00000000 </v>
   <v>       0.00000000       0.00000000       0.00000000 </v>
   <v>       0.00000000       0.00000000       0.00000000 </v>
   <v>       0.00000000       0.00000000       0.00000000 </v>
   <v>       0.00000000       0.00000000       0.00000000 </v>
   <v>       0.00000000       0.00000000       0.00000000 </v>
   <v>       0.00000000       0.00000000       0.00000000 </v>
   <v>       0.00000000       0.00000000       0.00000000 </v>
   <v>       0.00000000       0.00000000       0.00000000 </v>
   <v>       0.00000000       0.00000000       0.00000000 </v>
   <v>       0.00000000       0.00000000       0.00000000 </v>
   <v>       0.00000000       0.00000000       0.00000000 </v>
   <v>       0.00000000       0.00000000       0.00000000 </v>
   <v>       0.00000000       0.00000000       0.00000000 </v>
   <v>       0.00000000       0.00000000       0.00000000 </v>
   <v>       0.00000000       0.00000000       0.00000000 </v>
   <v>       0.00000000       0.00000000       0.00000000 </v>
   <v>       0.00000000       0.00000000       0.00000000 </v>
   <v>       0.00000000       0.00000000       0.00000000 </v>
   <v>       0.00000000       0.00000000       0.00000000 </v>
   <v>       0.00000000       0.00000000       0.00000000 </v>
   <v>       0.00000000       0.00000000       0.00000000 </v>
   <v>       0.00000000       0.00000000       0.00000000 </v>
   <v>       0.00000000       0.00000000       0.00000000 </v>
   <v>       0.00000000       0.00000000       0.00000000 </v>
   <v>       0.00000000       0.00000000       0.00000000 </v>
   <v>       0.00000000       0.00000000       0.00000000 </v>
   <v>       0.00000000       0.00000000       0.00000000 </v>
   <v>       0.00000000       0.00000000       0.00000000 </v>
   <v>       0.00000000       0.00000000       0.00000000 </v>
   <v>       0.00000000       0.00000000       0.00000000 </v>
   <v>       0.00000000       0.00000000       0.00000000 </v>
   <v>       0.00000000       0.00000000       0.00000000 </v>
   <v>       0.00000000       0.00000000       0.00000000 </v>
   <v>       0.00000000       0.00000000       0.00000000 </v>
   <v>       0.00000000       0.00000000       0.00000000 </v>
   <v>       0.00000000       0.00000000       0.00000000 </v>
   <v>       0.00000000       0.00000000       0.00000000 </v>
   <v>       0.00000000       0.00000000       0.00000000 </v>
   <v>       0.00000000       0.00000000       0.00000000 </v>
   <v>       0.00000000       0.00000000       0.00000000 </v>
   <v>       0.00000000       0.00000000       0.00000000 </v>
   <v>       0.00000000       0.00000000       0.00000000 </v>
   <v>       0.00000000       0.00000000       0.00000000 </v>
   <v>       0.00000000       0.00000000       0.00000000 </v>
   <v>       0.00000000       0.00000000       0.00000000 </v>
   <v>       0.00000000       0.00000000       0.00000000 </v>
   <v>       0.00000000       0.00000000       0.00000000 </v>
   <v>       0.00000000       0.00000000       0.00000000 </v>
   <v>       0.00000000       0.00000000       0.00000000 </v>
  </varray>
 </structure>
 <calculation>
  <scstep>
   <time name="dav">    3.36    3.36</time>
   <time name="total">    3.86    3.86</time>
   <energy>
    <i name="alphaZ">     82.54348252 </i>
    <i name="ewald">  34516.46463504 </i>
    <i name="hartreedc"> -41034.77981538 </i>
    <i name="XCdc">    721.37966300 </i>
    <i name="pawpsdc">  22781.19595426 </i>
    <i name="pawaedc"> -22817.52509957 </i>
    <i name="eentropy">     -0.00050605 </i>
    <i name="bandstr">  -2491.40458250 </i>
    <i name="atom">   7788.62438962 </i>
    <i name="e_fr_energy">   -453.50187908 </i>
    <i name="e_wo_entrp">   -453.50137302 </i>
    <i name="e_0_energy">   -453.50162605 </i>
   </energy>
  </scstep>
  <scstep>
   <time name="diag">    0.64    0.64</time>
   <time name="diis">    3.02    3.02</time>
   <time name="orth">    0.03    0.03</time>
   <time name="total">    4.18    4.19</time>
   <energy>
    <i name="e_fr_energy">   -454.29535951 </i>
    <i name="e_wo_entrp">   -454.29525659 </i>
    <i name="e_0_energy">   -454.29530805 </i>
   </energy>
  </scstep>
  <scstep>
   <time name="diag">    0.64    0.64</time>
   <time name="diis">    3.27    3.27</time>
   <time name="orth">    0.03    0.03</time>
   <time name="total">    4.42    4.42</time>
   <energy>
    <i name="e_fr_energy">   -454.33644558 </i>
    <i name="e_wo_entrp">   -454.33632115 </i>
    <i name="e_0_energy">   -454.33638336 </i>
   </energy>
  </scstep>
  <scstep>
   <time name="diag">    0.64    0.64</time>
   <time name="diis">    3.17    3.18</time>
   <time name="orth">    0.03    0.03</time>
   <time name="total">    4.33    4.34</time>
   <energy>
    <i name="e_fr_energy">   -454.33966391 </i>
    <i name="e_wo_entrp">   -454.33955245 </i>
    <i name="e_0_energy">   -454.33960818 </i>
   </energy>
  </scstep>
  <scstep>
   <time name="diag">    0.64    0.64</time>
   <time name="diis">    3.18    3.18</time>
   <time name="orth">    0.03    0.03</time>
   <time name="total">    4.34    4.34</time>
   <energy>
    <i name="e_fr_energy">   -454.33981175 </i>
    <i name="e_wo_entrp">   -454.33969863 </i>
    <i name="e_0_energy">   -454.33975519 </i>
   </energy>
  </scstep>
  <scstep>
   <time name="diag">    0.64    0.64</time>
   <time name="diis">    3.24    3.24</time>
   <time name="orth">    0.03    0.03</time>
   <time name="total">    4.40    4.40</time>
   <energy>
    <i name="e_fr_energy">   -454.33984633 </i>
    <i name="e_wo_entrp">   -454.33973162 </i>
    <i name="e_0_energy">   -454.33978898 </i>
   </energy>
  </scstep>
  <scstep>
   <time name="diag">    0.64    0.64</time>
   <time name="diis">    2.24    2.24</time>
   <time name="orth">    0.03    0.03</time>
   <time name="total">    3.09    3.09</time>
   <energy>
    <i name="alphaZ">     82.54348252 </i>
    <i name="ewald">  34516.46463504 </i>
    <i name="hartreedc"> -41034.84114956 </i>
    <i name="XCdc">    721.38414542 </i>
    <i name="pawpsdc">  22777.34587997 </i>
    <i name="pawaedc"> -22813.67765545 </i>
    <i name="eentropy">     -0.00011551 </i>
    <i name="bandstr">  -2492.18346588 </i>
    <i name="atom">   7788.62438962 </i>
    <i name="e_fr_energy">   -454.33985384 </i>
    <i name="e_wo_entrp">   -454.33973833 </i>
    <i name="e_0_energy">   -454.33979608 </i>
   </energy>
  </scstep>
  <structure>
   <crystal>
    <varray name="basis" >
     <v>      12.30000019       0.00000000       0.00000000 </v>
     <v>       6.15000080      10.65211222       0.00000000 </v>
     <v>       0.00000000       0.00000000      20.00000000 </v>
    </varray>
    <i name="volume">   2620.41964732 </i>
    <varray name="rec_basis" >
     <v>       0.08130081      -0.04693905       0.00000000 </v>
     <v>       0.00000000       0.09387809       0.00000000 </v>
     <v>       0.00000000       0.00000000       0.05000000 </v>
    </varray>
   </crystal>
   <varray name="positions" >
    <v>       0.00000000       0.00000000       0.41799748 </v>
    <v>       0.20000000       0.00000000       0.41799748 </v>
    <v>       0.40000000       0.00000000       0.41799748 </v>
    <v>       0.60000000       0.00000000       0.41799748 </v>
    <v>       0.80000000       0.00000000       0.41799748 </v>
    <v>       0.00000000       0.20000000       0.41799748 </v>
    <v>       0.20000000       0.20000000       0.41749748 </v>
    <v>       0.40000000       0.20000000       0.41799748 </v>
    <v>       0.60000000       0.20000000       0.41799748 </v>
    <v>       0.80000000       0.20000000       0.41799748 </v>
    <v>       0.00000000       0.40000000       0.41799748 </v>
    <v>       0.20000000       0.40000000       0.41799748 </v>
    <v>       0.40000000       0.40000000       0.41799748 </v>
    <v>       0.60000000       0.40000000       0.41799748 </v>
    <v>       0.80000000       0.40000000       0.41799748 </v>
    <v>       0.00000000       0.60000000       0.41799748 </v>
    <v>       0.20000000       0.60000000       0.41799748 </v>
    <v>       0.40000000       0.60000000       0.41799748 </v>
    <v>       0.60000000       0.60000000       0.41799748 </v>
    <v>       0.80000000       0.60000000       0.41799748 </v>
    <v>       0.00000000       0.80000000       0.41799748 </v>
    <v>       0.20000000       0.80000000       0.41799748 </v>
    <v>       0.40000000       0.80000000       0.41799748 </v>
    <v>       0.60000000       0.80000000       0.41799748 </v>
    <v>       0.80000000       0.80000000       0.41799748 </v>
    <v>       0.06666667       0.06666660       0.41800609 </v>
    <v>       0.26666667       0.06666660       0.41800609 </v>
    <v>       0.46666667       0.06666660       0.41800609 </v>
    <v>       0.66666667       0.06666660       0.41800609 </v>
    <v>       0.86666667       0.06666660       0.41800609 </v>
    <v>       0.06666667       0.26666660       0.41800609 </v>
    <v>       0.26666667       0.26666660       0.41800609 </v>
    <v>       0.46666667       0.26666660       0.41800609 </v>
    <v>       0.66666667       0.26666660       0.41800609 </v>
    <v>       0.86666667       0.26666660       0.41800609 </v>
    <v>       0.06666667       0.46666660       0.41800609 </v>
    <v>       0.26666667       0.46666660       0.41800609 </v>
    <v>       0.46666667       0.46666660       0.41800609 </v>
    <v>       0.66666667       0.46666660       0.41800609 </v>
    <v>       0.86666667       0.46666660       0.41800609 </v>
    <v>       0.06666667       0.66666660       0.41800609 </v>
    <v>       0.26666667       0.66666660       0.41800609 </v>
    <v>       0.46666667       0.66666660       0.41800609 </v>
    <v>       0.66666667       0.66666660       0.41800609 </v>
    <v>       0.86666667       0.66666660       0.41800609 </v>
    <v>       0.06666667       0.86666660       0.41800609 </v>
    <v>       0.26666667       0.86666660       0.41800609 </v>
    <v>       0.46666667       0.86666660       0.41800609 </v>
    <v>       0.66666667       0.86666660       0.41800609 </v>
    <v>       0.86666667       0.86666660       0.41800609 </v>
    <v>       0.40000000       0.40000000       0.46800609 </v>
   </varray>
  </structure>
  <varray name="forces" >
   <v>      -0.04756998      -0.02746454       0.00852532 </v>
   <v>       0.04744288      -0.02767150       0.01447880 </v>
   <v>      -0.15935457       0.01469889      -0.02117806 </v>
   <v>       0.00016942      -0.20789092      -0.02777886 </v>
   <v>       0.15909825       0.01437778      -0.02583362 </v>
   <v>      -0.00024278       0.05492249       0.01447880 </v>
   <v>       0.42888724       0.24761815       0.14028379 </v>
   <v>       0.09362240      -0.20440674       0.17085258 </v>
   <v>      -0.09451833      -0.20505011       0.16453431 </v>
   <v>      -0.42892292       0.24757869       0.00040427 </v>
   <v>      -0.06694769      -0.14535455      -0.02117806 </v>
   <v>      -0.13021022       0.18328275       0.17085258 </v>
   <v>      -0.00007500      -0.00004330     -48.15964709 </v>
   <v>       0.13013902       0.18452919       0.16504618 </v>
   <v>       0.06704030      -0.14504808      -0.02688840 </v>
   <v>      -0.17995410       0.10409219      -0.02777886 </v>
   <v>      -0.22483777       0.02066979       0.16453431 </v>
   <v>       0.22487648       0.02043909       0.16504618 </v>
   <v>       0.18001917       0.10393411      -0.02688287 </v>
   <v>      -0.00015091      -0.01310847       0.01798946 </v>
   <v>       0.09200065       0.13059423      -0.02583362 </v>
   <v>      -0.00005205      -0.49524749       0.00040427 </v>
   <v>      -0.09209516       0.13058265      -0.02688840 </v>
   <v>      -0.01142773       0.00642354       0.01798946 </v>
   <v>       0.01137427       0.00656694       0.01796652 </v>
   <v>      -0.00005270      -0.00003043      -0.01004331 </v>
   <v>       0.09717583      -0.21686844      -0.05027207 </v>
   <v>       0.19436821       0.25060587       0.25328253 </v>
   <v>      -0.19405155       0.25010099       0.25723004 </v>
   <v>      -0.09714950      -0.21723029       0.01018408 </v>
   <v>      -0.13922565       0.19259097      -0.05027207 </v>
   <v>      -0.44231864      -0.25537277      -0.41770588 </v>
   <v>       0.00047163      -5.07582694      -4.34478819 </v>
   <v>       0.44184055      -0.25499946      -0.35590652 </v>
   <v>       0.13961450       0.19271397       0.01511084 </v>
   <v>       0.31421516       0.04302485       0.25328253 </v>
   <v>      -4.39555910       2.53832220      -4.34478819 </v>
   <v>       4.39582438       2.53793019      -4.34820993 </v>
   <v>      -0.31396304       0.04299511       0.25641095 </v>
   <v>      -0.00003513       0.08247148      -0.01696585 </v>
   <v>       0.11956802      -0.29310407       0.25723004 </v>
   <v>       0.00008430       0.51014487      -0.35590652 </v>
   <v>      -0.11974668      -0.29339751       0.25641095 </v>
   <v>      -0.08222957      -0.04747526      -0.02694585 </v>
   <v>       0.08225421      -0.04751264      -0.02635997 </v>
   <v>      -0.23670170       0.02448123       0.01018408 </v>
   <v>       0.23670245       0.02455270       0.01511084 </v>
   <v>       0.07140483      -0.04126617      -0.01696585 </v>
   <v>      -0.00002004       0.09499055      -0.02635997 </v>
   <v>      -0.07121047      -0.04111338      -0.02209134 </v>
   <v>       0.00042881       0.00024757      59.98564566 </v>
  </varray>
  <varray name="stress" >
   <v>       9.50813515      -0.00040669      -0.00245472 </v>
   <v>      -0.00040669       9.50860476      -0.00141723 </v>
   <v>      -0.00245471      -0.00141723      31.90903990 </v>
  </varray>
  <energy>
   <i name="e_fr_energy">   -454.33985384 </i>
   <i name="e_wo_entrp">   -454.33979608 </i>
   <i name="e_0_energy">     -0.00011551 </i>
  </energy>
  <time name="totalsc">   34.03   34.06</time>
  <eigenvalues>
   <array>
    <dimension dim="1">band</dimension>
    <dimension dim="2">kpoint</dimension>
    <dimension dim="3">spin</dimension>
    <field>eigene</field>
    <field>occ</field>
    <set>
     <set comment="spin 1">
      <set comment="kpoint 1">
       <r>  -31.7394    1.0000 </r>
       <r>  -22.2709    1.0000 </r>
       <r>  -21.5027    1.0000 </r>
       <r>  -21.5027    1.0000 </r>
       <r>  -21.3943    1.0000 </r>
       <r>  -21.3943    1.0000 </r>
       <r>  -21.3938    1.0000 </r>
       <r>  -20.8740    1.0000 </r>
       <r>  -19.8763    1.0000 </r>
       <r>  -19.8763    1.0000 </r>
       <r>  -19.5490    1.0000 </r>
       <r>  -19.5489    1.0000 </r>
       <r>  -19.5387    1.0000 </r>
       <r>  -19.1912    1.0000 </r>
       <r>  -18.9008    1.0000 </r>
       <r>  -18.9008    1.0000 </r>
       <r>  -18.6434    1.0000 </r>
       <r>  -18.6429    1.0000 </r>
       <r>  -18.6428    1.0000 </r>
       <r>  -17.8839    1.0000 </r>
       <r>  -17.0211    1.0000 </r>
       <r>  -17.0211    1.0000 </r>
       <r>  -16.4776    1.0000 </r>
       <r>  -16.4580    1.0000 </r>
       <r>  -16.4580    1.0000 </r>
       <r>  -16.0493    1.0000 </r>
       <r>  -15.9965    1.0000 </r>
       <r>  -15.9965    1.0000 </r>
       <r>  -15.4972    1.0000 </r>
       <r>  -15.4972    1.0000 </r>
       <r>  -15.4927    1.0000 </r>
       <r>  -15.0894    1.0000 </r>
       <r>  -14.6291    1.0000 </r>
       <r>  -14.6291    1.0000 </r>
       <r>  -14.1496    1.0000 </r>
       <r>  -14.1495    1.0000 </r>
       <r>  -14.1429    1.0000 </r>
       <r>  -13.9644    1.0000 </r>
       <r>  -12.9908    1.0000 </r>
       <r>  -12.9907    1.0000 </r>
       <r>  -12.0311    1.0000 </r>
       <r>  -11.7646    1.0000 </r>
       <r>  -11.7645    1.0000 </r>
       <r>  -11.7614    1.0000 </r>
       <r>  -11.6901    1.0000 </r>
       <r>  -11.6901    1.0000 </r>
       <r>  -11.6515    1.0000 </r>
       <r>  -11.6495    1.0000 </r>
       <r>  -11.6495    1.0000 </r>
       <r>  -11.6486    1.0000 </r>
       <r>  -10.8020    1.0000 </r>
       <r>  -10.8018    1.0000 </r>
       <r>  -10.4284    1.0000 </r>
       <r>  -10.3340    1.0000 </r>
       <r>  -10.2886    1.0000 </r>
       <r>  -10.2885    1.0000 </r>
       <r>  -10.2703    1.0000 </r>
       <r>  -10.0782    1.0000 </r>
       <r>   -9.6851    1.0000 </r>
       <r>   -9.6850    1.0000 </r>
       <r>   -9.3252    1.0000 </r>
       <r>   -9.3248    1.0000 </r>
       <r>   -9.3001    1.0000 </r>
       <r>   -9.2800    1.0000 </r>
       <r>   -9.2796    1.0000 </r>
       <r>   -9.0457    1.0000 </r>
       <r>   -9.0045    1.0000 </r>
       <r>   -9.0043    1.0000 </r>
       <r>   -8.9484    1.0000 </r>
       <r>   -8.9403    1.0000 </r>
       <r>   -8.9401    1.0000 </r>
       <r>   -8.9383    1.0000 </r>
       <r>   -8.9187    1.0000 </r>
       <r>   -8.9187    1.0000 </r>
       <r>   -8.8928    1.0000 </r>
       <r>   -8.4377    1.0000 </r>
       <r>   -7.8030    1.0000 </r>
       <r>   -7.8014    1.0000 </r>
       <r>   -7.3240    1.0000 </r>
       <r>   -7.3221    1.0000 </r>
       <r>   -7.3099    1.0000 </r>
       <r>   -7.3004    1.0000 </r>
       <r>   -7.2999    1.0000 </r>
       <r>   -7.2993    1.0000 </r>
       <r>   -7.1609    1.0000 </r>
       <r>   -7.1606    1.0000 </r>
       <r>   -7.1547    1.0000 </r>
       <r>   -6.7514    1.0000 </r>
       <r>   -6.5089    1.0000 </r>
       <r>   -6.5072    1.0000 </r>
       <r>   -6.2668    1.0000 </r>
       <r>   -6.2463    1.0000 </r>
       <r>   -6.2463    1.0000 </r>
       <r>   -5.9214    1.0000 </r>
       <r>   -5.9208    1.0000 </r>
       <r>   -5.1955    1.0000 </r>
       <r>   -4.7642    1.0000 </r>
       <r>   -4.7640    1.0000 </r>
       <r>   -4.2704    1.0000 </r>
       <r>   -4.2663    1.0000 </r>
       <r>   -4.2663    1.0000 </r>
       <r>   -3.2144    1.0000 </r>
       <r>   -3.2144    1.0000 </r>
       <r>   -2.9161    0.0022 </r>
       <r>   -1.4611    0.0000 </r>
       <r>   -1.4570    0.0000 </r>
       <r>   -1.4569    0.0000 </r>
       <r>   -0.9911    0.0000 </r>
       <r>   -0.9910    0.0000 </r>
       <r>   -0.5430    0.0000 </r>
       <r>    0.4172    0.0000 </r>
       <r>    0.4218    0.0000 </r>
       <r>    0.4219    0.0000 </r>
       <r>    0.5622    0.0000 </r>
       <r>    0.8438    0.0000 </r>
       <r>    0.8442    0.0000 </r>
       <r>    1.2929    0.0000 </r>
       <r>    1.3401    0.0000 </r>
       <r>    1.6795    0.0000 </r>
       <r>    1.8009    0.0000 </r>
       <r>    1.8024    0.0000 </r>
       <r>    1.8026    0.0000 </r>
       <r>    1.8260    0.0000 </r>
       <r>    1.8268    0.0000 </r>
       <r>    2.0311    0.0000 </r>
       <r>    2.1768    0.0000 </r>
       <r>    2.1795    0.0000 </r>
       <r>    2.1796    0.0000 </r>
       <r>    2.3473    0.0000 </r>
       <r>    2.3490    0.0000 </r>
       <r>    2.6219    0.0000 </r>
       <r>    2.6405    0.0000 </r>
      </set>
      <set comment="kpoint 2">
       <r>  -31.7395    1.0000 </r>
       <r>  -22.1888    1.0000 </r>
       <r>  -21.8691    1.0000 </r>
       <r>  -21.6610    1.0000 </r>
       <r>  -21.4544    1.0000 </r>
       <r>  -21.0345    1.0000 </r>
       <r>  -20.8970    1.0000 </r>
       <r>  -20.7273    1.0000 </r>
       <r>  -20.4199    1.0000 </r>
       <r>  -20.1620    1.0000 </r>
       <r>  -19.7867    1.0000 </r>
       <r>  -19.6989    1.0000 </r>
       <r>  -19.3262    1.0000 </r>
       <r>  -19.2428    1.0000 </r>
       <r>  -19.0614    1.0000 </r>
       <r>  -18.5926    1.0000 </r>
       <r>  -18.4577    1.0000 </r>
       <r>  -18.1211    1.0000 </r>
       <r>  -18.0628    1.0000 </r>
       <r>  -17.5907    1.0000 </r>
       <r>  -17.4976    1.0000 </r>
       <r>  -17.3006    1.0000 </r>
       <r>  -17.2764    1.0000 </r>
       <r>  -16.8512    1.0000 </r>
       <r>  -16.6582    1.0000 </r>
       <r>  -16.1759    1.0000 </r>
       <r>  -15.9777    1.0000 </r>
       <r>  -15.8475    1.0000 </r>
       <r>  -15.2981    1.0000 </r>
       <r>  -15.1696    1.0000 </r>
       <r>  -15.1340    1.0000 </r>
       <r>  -14.8846    1.0000 </r>
       <r>  -14.7816    1.0000 </r>
       <r>  -14.4779    1.0000 </r>
       <r>  -14.4558    1.0000 </r>
       <r>  -13.7669    1.0000 </r>
       <r>  -13.7597    1.0000 </r>
       <r>  -13.1959    1.0000 </r>
       <r>  -13.0891    1.0000 </r>
       <r>  -12.9340    1.0000 </r>
       <r>  -12.9042    1.0000 </r>
       <r>  -12.5849    1.0000 </r>
       <r>  -12.5498    1.0000 </r>
       <r>  -12.3898    1.0000 </r>
       <r>  -12.0219    1.0000 </r>
       <r>  -11.6633    1.0000 </r>
       <r>  -11.4471    1.0000 </r>
       <r>  -11.2960    1.0000 </r>
       <r>  -11.1216    1.0000 </r>
       <r>  -10.9139    1.0000 </r>
       <r>  -10.8498    1.0000 </r>
       <r>  -10.5840    1.0000 </r>
       <r>  -10.5324    1.0000 </r>
       <r>  -10.2849    1.0000 </r>
       <r>  -10.2371    1.0000 </r>
       <r>  -10.1611    1.0000 </r>
       <r>  -10.0486    1.0000 </r>
       <r>   -9.8534    1.0000 </r>
       <r>   -9.8200    1.0000 </r>
       <r>   -9.6534    1.0000 </r>
       <r>   -9.6069    1.0000 </r>
       <r>   -9.5605    1.0000 </r>
       <r>   -9.5271    1.0000 </r>
       <r>   -9.3709    1.0000 </r>
       <r>   -9.3410    1.0000 </r>
       <r>   -9.2589    1.0000 </r>
       <r>   -9.1754    1.0000 </r>
       <r>   -9.0995    1.0000 </r>
       <r>   -9.0820    1.0000 </r>
       <r>   -8.8643    1.0000 </r>
       <r>   -8.7130    1.0000 </r>
       <r>   -8.6645    1.0000 </r>
       <r>   -8.5051    1.0000 </r>
       <r>   -8.4021    1.0000 </r>
       <r>   -8.2866    1.0000 </r>
       <r>   -8.1333    1.0000 </r>
       <r>   -8.0933    1.0000 </r>
       <r>   -8.0654    1.0000 </r>
       <r>   -7.9710    1.0000 </r>
       <r>   -7.8084    1.0000 </r>
       <r>   -7.6196    1.0000 </r>
       <r>   -7.3611    1.0000 </r>
       <r>   -7.3375    1.0000 </r>
       <r>   -7.2658    1.0000 </r>
       <r>   -7.1970    1.0000 </r>
       <r>   -6.9203    1.0000 </r>
       <r>   -6.8734    1.0000 </r>
       <r>   -6.6905    1.0000 </r>
       <r>   -6.5913    1.0000 </r>
       <r>   -6.3470    1.0000 </r>
       <r>   -6.1846    1.0000 </r>
       <r>   -6.0733    1.0000 </r>
       <r>   -5.9222    1.0000 </r>
       <r>   -5.7391    1.0000 </r>
       <r>   -5.6405    1.0000 </r>
       <r>   -5.3223    1.0000 </r>
       <r>   -5.1151    1.0000 </r>
       <r>   -4.9701    1.0000 </r>
       <r>   -4.9225    1.0000 </r>
       <r>   -4.2697    1.0000 </r>
       <r>   -4.1689    1.0000 </r>
       <r>   -3.3364    1.0000 </r>
       <r>   -3.1365    0.9996 </r>
       <r>   -2.8037    0.0000 </r>
       <r>   -1.5911    0.0000 </r>
       <r>   -1.4236    0.0000 </r>
       <r>   -0.8399    0.0000 </r>
       <r>   -0.8190    0.0000 </r>
       <r>   -0.7060    0.0000 </r>
       <r>   -0.6679    0.0000 </r>
       <r>   -0.1285    0.0000 </r>
       <r>   -0.0059    0.0000 </r>
       <r>    0.2930    0.0000 </r>
       <r>    0.7043    0.0000 </r>
       <r>    0.7270    0.0000 </r>
       <r>    1.0974    0.0000 </r>
       <r>    1.1779    0.0000 </r>
       <r>    1.3645    0.0000 </r>
       <r>    1.4632    0.0000 </r>
       <r>    1.5375    0.0000 </r>
       <r>    1.5708    0.0000 </r>
       <r>    1.6371    0.0000 </r>
       <r>    1.8287    0.0000 </r>
       <r>    1.9125    0.0000 </r>
       <r>    2.0392    0.0000 </r>
       <r>    2.2220    0.0000 </r>
       <r>    2.2694    0.0000 </r>
       <r>    2.3291    0.0000 </r>
       <r>    2.3403    0.0000 </r>
       <r>    2.3959    0.0000 </r>
       <r>    2.4576    0.0000 </r>
       <r>    2.7998    0.0000 </r>
      </set>
      <set comment="kpoint 3">
       <r>  -31.7395    1.0000 </r>
       <r>  -22.1888    1.0000 </r>
       <r>  -21.8691    1.0000 </r>
       <r>  -21.6610    1.0000 </r>
       <r>  -21.4543    1.0000 </r>
       <r>  -21.0345    1.0000 </r>
       <r>  -20.8970    1.0000 </r>
       <r>  -20.7273    1.0000 </r>
       <r>  -20.4199    1.0000 </r>
       <r>  -20.1620    1.0000 </r>
       <r>  -19.7867    1.0000 </r>
       <r>  -19.6989    1.0000 </r>
       <r>  -19.3261    1.0000 </r>
       <r>  -19.2427    1.0000 </r>
       <r>  -19.0615    1.0000 </r>
       <r>  -18.5926    1.0000 </r>
       <r>  -18.4577    1.0000 </r>
       <r>  -18.1211    1.0000 </r>
       <r>  -18.0628    1.0000 </r>
       <r>  -17.5907    1.0000 </r>
       <r>  -17.4976    1.0000 </r>
       <r>  -17.3006    1.0000 </r>
       <r>  -17.2764    1.0000 </r>
       <r>  -16.8511    1.0000 </r>
       <r>  -16.6582    1.0000 </r>
       <r>  -16.1759    1.0000 </r>
       <r>  -15.9777    1.0000 </r>
       <r>  -15.8474    1.0000 </r>
       <r>  -15.2981    1.0000 </r>
       <r>  -15.1695    1.0000 </r>
       <r>  -15.1340    1.0000 </r>
       <r>  -14.8846    1.0000 </r>
       <r>  -14.7816    1.0000 </r>
       <r>  -14.4779    1.0000 </r>
       <r>  -14.4558    1.0000 </r>
       <r>  -13.7670    1.0000 </r>
       <r>  -13.7597    1.0000 </r>
       <r>  -13.1958    1.0000 </r>
       <r>  -13.0892    1.0000 </r>
       <r>  -12.9340    1.0000 </r>
       <r>  -12.9043    1.0000 </r>
       <r>  -12.5850    1.0000 </r>
       <r>  -12.5498    1.0000 </r>
       <r>  -12.3898    1.0000 </r>
       <r>  -12.0218    1.0000 </r>
       <r>  -11.6631    1.0000 </r>
       <r>  -11.4470    1.0000 </r>
       <r>  -11.2959    1.0000 </r>
       <r>  -11.1214    1.0000 </r>
       <r>  -10.9140    1.0000 </r>
       <r>  -10.8499    1.0000 </r>
       <r>  -10.5840    1.0000 </r>
       <r>  -10.5325    1.0000 </r>
       <r>  -10.2852    1.0000 </r>
       <r>  -10.2368    1.0000 </r>
       <r>  -10.1611    1.0000 </r>
       <r>  -10.0492    1.0000 </r>
       <r>   -9.8529    1.0000 </r>
       <r>   -9.8200    1.0000 </r>
       <r>   -9.6535    1.0000 </r>
       <r>   -9.6066    1.0000 </r>
       <r>   -9.5600    1.0000 </r>
       <r>   -9.5268    1.0000 </r>
       <r>   -9.3714    1.0000 </r>
       <r>   -9.3400    1.0000 </r>
       <r>   -9.2604    1.0000 </r>
       <r>   -9.1754    1.0000 </r>
       <r>   -9.0992    1.0000 </r>
       <r>   -9.0826    1.0000 </r>
       <r>   -8.8642    1.0000 </r>
       <r>   -8.7135    1.0000 </r>
       <r>   -8.6639    1.0000 </r>
       <r>   -8.5059    1.0000 </r>
       <r>   -8.4022    1.0000 </r>
       <r>   -8.2865    1.0000 </r>
       <r>   -8.1321    1.0000 </r>
       <r>   -8.0939    1.0000 </r>
       <r>   -8.0668    1.0000 </r>
       <r>   -7.9712    1.0000 </r>
       <r>   -7.8079    1.0000 </r>
       <r>   -7.6198    1.0000 </r>
       <r>   -7.3588    1.0000 </r>
       <r>   -7.3356    1.0000 </r>
       <r>   -7.2661    1.0000 </r>
       <r>   -7.1972    1.0000 </r>
       <r>   -6.9201    1.0000 </r>
       <r>   -6.8718    1.0000 </r>
       <r>   -6.6939    1.0000 </r>
       <r>   -6.5927    1.0000 </r>
       <r>   -6.3465    1.0000 </r>
       <r>   -6.1863    1.0000 </r>
       <r>   -6.0719    1.0000 </r>
       <r>   -5.9219    1.0000 </r>
       <r>   -5.7384    1.0000 </r>
       <r>   -5.6409    1.0000 </r>
       <r>   -5.3223    1.0000 </r>
       <r>   -5.1150    1.0000 </r>
       <r>   -4.9700    1.0000 </r>
       <r>   -4.9225    1.0000 </r>
       <r>   -4.2698    1.0000 </r>
       <r>   -4.1689    1.0000 </r>
       <r>   -3.3362    1.0000 </r>
       <r>   -3.1365    0.9996 </r>
       <r>   -2.8037    0.0000 </r>
       <r>   -1.5910    0.0000 </r>
       <r>   -1.4237    0.0000 </r>
       <r>   -0.8399    0.0000 </r>
       <r>   -0.8190    0.0000 </r>
       <r>   -0.7061    0.0000 </r>
       <r>   -0.6677    0.0000 </r>
       <r>   -0.1284    0.0000 </r>
       <r>   -0.0060    0.0000 </r>
       <r>    0.2929    0.0000 </r>
       <r>    0.7052    0.0000 </r>
       <r>    0.7272    0.0000 </r>
       <r>    1.1000    0.0000 </r>
       <r>    1.1756    0.0000 </r>
       <r>    1.3665    0.0000 </r>
       <r>    1.4651    0.0000 </r>
       <r>    1.5597    0.0000 </r>
       <r>    1.5805    0.0000 </r>
       <r>    1.7491    0.0000 </r>
       <r>    1.8299    0.0000 </r>
       <r>    2.1805    0.0000 </r>
       <r>    2.3365    0.0000 </r>
       <r>    2.3973    0.0000 </r>
       <r>    2.6147    0.0000 </r>
       <r>    2.7888    0.0000 </r>
       <r>    2.8430    0.0000 </r>
       <r>    3.2044    0.0000 </r>
       <r>    3.5945    0.0000 </r>
       <r>    4.1669    0.0000 </r>
      </set>
      <set comment="kpoint 4">
       <r>  -31.7395    1.0000 </r>
       <r>  -22.0803    1.0000 </r>
       <r>  -22.0075    1.0000 </r>
       <r>  -21.8014    1.0000 </r>
       <r>  -21.1718    1.0000 </r>
       <r>  -21.1503    1.0000 </r>
       <r>  -20.8673    1.0000 </r>
       <r>  -20.4129    1.0000 </r>
       <r>  -20.3386    1.0000 </r>
       <r>  -20.1719    1.0000 </r>
       <r>  -20.1502    1.0000 </r>
       <r>  -20.1428    1.0000 </r>
       <r>  -19.5666    1.0000 </r>
       <r>  -18.8260    1.0000 </r>
       <r>  -18.6743    1.0000 </r>
       <r>  -18.3723    1.0000 </r>
       <r>  -18.3487    1.0000 </r>
       <r>  -18.3363    1.0000 </r>
       <r>  -17.9298    1.0000 </r>
       <r>  -17.8012    1.0000 </r>
       <r>  -17.6014    1.0000 </r>
       <r>  -17.2614    1.0000 </r>
       <r>  -17.1530    1.0000 </r>
       <r>  -17.1204    1.0000 </r>
       <r>  -16.5427    1.0000 </r>
       <r>  -16.4375    1.0000 </r>
       <r>  -16.2841    1.0000 </r>
       <r>  -15.8083    1.0000 </r>
       <r>  -15.6287    1.0000 </r>
       <r>  -15.1753    1.0000 </r>
       <r>  -14.9692    1.0000 </r>
       <r>  -14.6523    1.0000 </r>
       <r>  -13.9599    1.0000 </r>
       <r>  -13.9391    1.0000 </r>
       <r>  -13.9244    1.0000 </r>
       <r>  -13.8734    1.0000 </r>
       <r>  -13.8637    1.0000 </r>
       <r>  -13.7918    1.0000 </r>
       <r>  -13.6745    1.0000 </r>
       <r>  -13.4947    1.0000 </r>
       <r>  -13.0374    1.0000 </r>
       <r>  -12.4743    1.0000 </r>
       <r>  -12.2538    1.0000 </r>
       <r>  -12.0712    1.0000 </r>
       <r>  -11.8232    1.0000 </r>
       <r>  -11.7728    1.0000 </r>
       <r>  -11.5630    1.0000 </r>
       <r>  -11.5454    1.0000 </r>
       <r>  -11.5226    1.0000 </r>
       <r>  -10.9290    1.0000 </r>
       <r>  -10.8173    1.0000 </r>
       <r>  -10.5300    1.0000 </r>
       <r>  -10.2058    1.0000 </r>
       <r>  -10.2036    1.0000 </r>
       <r>  -10.1940    1.0000 </r>
       <r>  -10.0946    1.0000 </r>
       <r>  -10.0523    1.0000 </r>
       <r>  -10.0220    1.0000 </r>
       <r>   -9.9029    1.0000 </r>
       <r>   -9.7519    1.0000 </r>
       <r>   -9.7479    1.0000 </r>
       <r>   -9.5639    1.0000 </r>
       <r>   -9.4407    1.0000 </r>
       <r>   -9.4073    1.0000 </r>
       <r>   -9.1972    1.0000 </r>
       <r>   -9.0461    1.0000 </r>
       <r>   -9.0346    1.0000 </r>
       <r>   -8.9016    1.0000 </r>
       <r>   -8.8838    1.0000 </r>
       <r>   -8.6890    1.0000 </r>
       <r>   -8.6369    1.0000 </r>
       <r>   -8.6351    1.0000 </r>
       <r>   -8.6237    1.0000 </r>
       <r>   -8.5822    1.0000 </r>
       <r>   -8.3742    1.0000 </r>
       <r>   -8.2519    1.0000 </r>
       <r>   -8.1645    1.0000 </r>
       <r>   -8.0359    1.0000 </r>
       <r>   -7.9840    1.0000 </r>
       <r>   -7.8796    1.0000 </r>
       <r>   -7.8579    1.0000 </r>
       <r>   -7.8546    1.0000 </r>
       <r>   -7.2236    1.0000 </r>
       <r>   -7.1835    1.0000 </r>
       <r>   -7.1248    1.0000 </r>
       <r>   -6.8876    1.0000 </r>
       <r>   -6.7221    1.0000 </r>
       <r>   -6.6124    1.0000 </r>
       <r>   -6.4599    1.0000 </r>
       <r>   -6.2671    1.0000 </r>
       <r>   -6.1021    1.0000 </r>
       <r>   -5.9165    1.0000 </r>
       <r>   -5.9111    1.0000 </r>
       <r>   -5.8977    1.0000 </r>
       <r>   -5.4522    1.0000 </r>
       <r>   -5.4253    1.0000 </r>
       <r>   -5.1218    1.0000 </r>
       <r>   -5.0140    1.0000 </r>
       <r>   -4.9804    1.0000 </r>
       <r>   -4.9577    1.0000 </r>
       <r>   -3.7325    1.0000 </r>
       <r>   -3.4582    1.0000 </r>
       <r>   -3.2796    1.0000 </r>
       <r>   -2.3869    0.0000 </r>
       <r>   -2.2241    0.0000 </r>
       <r>   -0.9285    0.0000 </r>
       <r>   -0.8820    0.0000 </r>
       <r>   -0.8676    0.0000 </r>
       <r>   -0.5383    0.0000 </r>
       <r>   -0.2640    0.0000 </r>
       <r>   -0.2110    0.0000 </r>
       <r>    0.2520    0.0000 </r>
       <r>    0.2583    0.0000 </r>
       <r>    0.2605    0.0000 </r>
       <r>    0.5993    0.0000 </r>
       <r>    0.7907    0.0000 </r>
       <r>    0.9497    0.0000 </r>
       <r>    0.9736    0.0000 </r>
       <r>    1.0613    0.0000 </r>
       <r>    1.7356    0.0000 </r>
       <r>    1.7455    0.0000 </r>
       <r>    1.7676    0.0000 </r>
       <r>    1.8267    0.0000 </r>
       <r>    2.1175    0.0000 </r>
       <r>    2.1217    0.0000 </r>
       <r>    2.1248    0.0000 </r>
       <r>    2.2459    0.0000 </r>
       <r>    2.2478    0.0000 </r>
       <r>    2.3613    0.0000 </r>
       <r>    2.9997    0.0000 </r>
       <r>    3.0122    0.0000 </r>
       <r>    3.0357    0.0000 </r>
      </set>
     </set>
    </set>
   </array>
  </eigenvalues>
  <separator name="orbital magnetization" >
   <v name="MAGDIPOLOUT">      0.00000000      0.00000000      0.00000000</v>
  </separator>
  <dos>
   <i name="efermi">     -3.01695955 </i>
   <total>
    <array>
     <dimension dim="1">gridpoints</dimension>
     <dimension dim="2">spin</dimension>
     <field>energy</field>
     <field>total</field>
     <field>integrated</field>
     <set>
      <set comment="spin 1">
       <r>   -33.5349     0.0000     0.0000 </r>
       <r>   -33.4032     0.0000     0.0000 </r>
       <r>   -33.2715     0.0000     0.0000 </r>
       <r>   -33.1399     0.0000     0.0000 </r>
       <r>   -33.0082     0.0000     0.0000 </r>
       <r>   -32.8766     0.0000     0.0000 </r>
       <r>   -32.7449     0.0000     0.0000 </r>
       <r>   -32.6133     0.0000     0.0000 </r>
       <r>   -32.4816     0.0000     0.0000 </r>
       <r>   -32.3499     0.0000     0.0000 </r>
       <r>   -32.2183     0.0000     0.0000 </r>
       <r>   -32.0866     0.0000     0.0000 </r>
       <r>   -31.9550     0.0000     0.0000 </r>
       <r>   -31.8233     0.1347     0.0177 </r>
       <r>   -31.6917    13.7185     1.8239 </r>
       <r>   -31.5600     1.3377     2.0000 </r>
       <r>   -31.4283     0.0000     2.0000 </r>
       <r>   -31.2967     0.0000     2.0000 </r>
       <r>   -31.1650     0.0000     2.0000 </r>
       <r>   -31.0334     0.0000     2.0000 </r>
       <r>   -30.9017     0.0000     2.0000 </r>
       <r>   -30.7701     0.0000     2.0000 </r>
       <r>   -30.6384     0.0000     2.0000 </r>
       <r>   -30.5067     0.0000     2.0000 </r>
       <r>   -30.3751     0.0000     2.0000 </r>
       <r>   -30.2434     0.0000     2.0000 </r>
       <r>   -30.1118     0.0000     2.0000 </r>
       <r>   -29.9801     0.0000     2.0000 </r>
       <r>   -29.8485     0.0000     2.0000 </r>
       <r>   -29.7168     0.0000     2.0000 </r>
       <r>   -29.5852     0.0000     2.0000 </r>
       <r>   -29.4535     0.0000     2.0000 </r>
       <r>   -29.3218     0.0000     2.0000 </r>
       <r>   -29.1902     0.0000     2.0000 </r>
       <r>   -29.0585     0.0000     2.0000 </r>
       <r>   -28.9269     0.0000     2.0000 </r>
       <r>   -28.7952     0.0000     2.0000 </r>
       <r>   -28.6636     0.0000     2.0000 </r>
       <r>   -28.5319     0.0000     2.0000 </r>
       <r>   -28.4002     0.0000     2.0000 </r>
       <r>   -28.2686     0.0000     2.0000 </r>
       <r>   -28.1369     0.0000     2.0000 </r>
       <r>   -28.0053     0.0000     2.0000 </r>
       <r>   -27.8736     0.0000     2.0000 </r>
       <r>   -27.7420     0.0000     2.0000 </r>
       <r>   -27.6103     0.0000     2.0000 </r>
       <r>   -27.4786     0.0000     2.0000 </r>
       <r>   -27.3470     0.0000     2.0000 </r>
       <r>   -27.2153     0.0000     2.0000 </r>
       <r>   -27.0837     0.0000     2.0000 </r>
       <r>   -26.9520     0.0000     2.0000 </r>
       <r>   -26.8204     0.0000     2.0000 </r>
       <r>   -26.6887     0.0000     2.0000 </r>
       <r>   -26.5570     0.0000     2.0000 </r>
       <r>   -26.4254     0.0000     2.0000 </r>
       <r>   -26.2937     0.0000     2.0000 </r>
       <r>   -26.1621     0.0000     2.0000 </r>
       <r>   -26.0304     0.0000     2.0000 </r>
       <r>   -25.8988     0.0000     2.0000 </r>
       <r>   -25.7671     0.0000     2.0000 </r>
       <r>   -25.6354     0.0000     2.0000 </r>
       <r>   -25.5038     0.0000     2.0000 </r>
       <r>   -25.3721     0.0000     2.0000 </r>
       <r>   -25.2405     0.0000     2.0000 </r>
       <r>   -25.1088     0.0000     2.0000 </r>
       <r>   -24.9772     0.0000     2.0000 </r>
       <r>   -24.8455     0.0000     2.0000 </r>
       <r>   -24.7138     0.0000     2.0000 </r>
       <r>   -24.5822     0.0000     2.0000 </r>
       <r>   -24.4505     0.0000     2.0000 </r>
       <r>   -24.3189     0.0000     2.0000 </r>
       <r>   -24.1872     0.0000     2.0000 </r>
       <r>   -24.0556     0.0000     2.0000 </r>
       <r>   -23.9239     0.0000     2.0000 </r>
       <r>   -23.7922     0.0000     2.0000 </r>
       <r>   -23.6606     0.0000     2.0000 </r>
       <r>   -23.5289     0.0000     2.0000 </r>
       <r>   -23.3973     0.0000     2.0000 </r>
       <r>   -23.2656     0.0000     2.0000 </r>
       <r>   -23.1340     0.0000     2.0000 </r>
       <r>   -23.0023     0.0000     2.0000 </r>
       <r>   -22.8706     0.0000     2.0000 </r>
       <r>   -22.7390     0.0000     2.0000 </r>
       <r>   -22.6073     0.0000     2.0000 </r>
       <r>   -22.4757     0.0000     2.0000 </r>
       <r>   -22.3440     0.0326     2.0043 </r>
       <r>   -22.2124     4.1313     2.5482 </r>
       <r>   -22.0807     9.3755     3.7826 </r>
       <r>   -21.9491     4.9812     4.4384 </r>
       <r>   -21.8174    10.5465     5.8269 </r>
       <r>   -21.6857     5.4564     6.5453 </r>
       <r>   -21.5541     7.9324     7.5896 </r>
       <r>   -21.4224    12.4212     9.2250 </r>
       <r>   -21.2908     5.8795     9.9990 </r>
       <r>   -21.1591     3.5265    10.4633 </r>
       <r>   -21.0275     9.0951    11.6608 </r>
       <r>   -20.8958    10.6243    13.0595 </r>
       <r>   -20.7641    10.3264    14.4190 </r>
       <r>   -20.6325     8.5952    15.5507 </r>
       <r>   -20.5008     0.1706    15.5731 </r>
       <r>   -20.3692    12.8920    17.2704 </r>
       <r>   -20.2375     4.1546    17.8174 </r>
       <r>   -20.1059    18.4293    20.2438 </r>
       <r>   -19.9742     1.5338    20.4457 </r>
       <r>   -19.8425     3.3733    20.8898 </r>
       <r>   -19.7109    13.6738    22.6901 </r>
       <r>   -19.5792     8.6630    23.8306 </r>
       <r>   -19.4476     6.3367    24.6649 </r>
       <r>   -19.3159     6.4273    25.5111 </r>
       <r>   -19.1843    14.3218    27.3966 </r>
       <r>   -19.0526     7.2699    28.3538 </r>
       <r>   -18.9209     5.0370    29.0169 </r>
       <r>   -18.7893     5.2730    29.7112 </r>
       <r>   -18.6576     4.8605    30.3511 </r>
       <r>   -18.5260    14.1788    32.2178 </r>
       <r>   -18.3943    11.1943    33.6916 </r>
       <r>   -18.2627     9.0027    34.8769 </r>
       <r>   -18.1310     4.3128    35.4447 </r>
       <r>   -17.9993    15.7453    37.5177 </r>
       <r>   -17.8677     4.7739    38.1462 </r>
       <r>   -17.7360     3.8434    38.6522 </r>
       <r>   -17.6044     5.2331    39.3412 </r>
       <r>   -17.4727    16.0617    41.4558 </r>
       <r>   -17.3411     4.1073    41.9966 </r>
       <r>   -17.2094    21.5925    44.8394 </r>
       <r>   -17.0777     6.8721    45.7441 </r>
       <r>   -16.9461     3.6108    46.2195 </r>
       <r>   -16.8144     8.6328    47.3561 </r>
       <r>   -16.6828     3.9797    47.8801 </r>
       <r>   -16.5511     9.0701    49.0742 </r>
       <r>   -16.4195     8.8256    50.2362 </r>
       <r>   -16.2878     3.1372    50.6492 </r>
       <r>   -16.1561     9.0320    51.8383 </r>
       <r>   -16.0245     5.8572    52.6095 </r>
       <r>   -15.8928    13.1981    54.3471 </r>
       <r>   -15.7612    12.1726    55.9497 </r>
       <r>   -15.6295     2.0379    56.2180 </r>
       <r>   -15.4979     4.1296    56.7617 </r>
       <r>   -15.3662     2.9276    57.1471 </r>
       <r>   -15.2345    10.0030    58.4641 </r>
       <r>   -15.1029    21.7869    61.3325 </r>
       <r>   -14.9712     5.0647    61.9993 </r>
       <r>   -14.8396    11.3050    63.4877 </r>
       <r>   -14.7079    10.6936    64.8955 </r>
       <r>   -14.5763     6.4500    65.7447 </r>
       <r>   -14.4446    14.9429    67.7121 </r>
       <r>   -14.3130     5.5624    68.4444 </r>
       <r>   -14.1813     0.8569    68.5572 </r>
       <r>   -14.0496     4.2279    69.1139 </r>
       <r>   -13.9180     9.4254    70.3548 </r>
       <r>   -13.7863    16.1897    72.4863 </r>
       <r>   -13.6547    18.9437    74.9803 </r>
       <r>   -13.5230     1.7092    75.2053 </r>
       <r>   -13.3914     2.6542    75.5548 </r>
       <r>   -13.2597     0.3651    75.6029 </r>
       <r>   -13.1280    10.8804    77.0353 </r>
       <r>   -12.9964    13.8444    78.8580 </r>
       <r>   -12.8647    20.5872    81.5685 </r>
       <r>   -12.7331     1.5898    81.7778 </r>
       <r>   -12.6014     3.9783    82.3016 </r>
       <r>   -12.4698    18.1328    84.6889 </r>
       <r>   -12.3381    10.9478    86.1302 </r>
       <r>   -12.2064     3.7699    86.6266 </r>
       <r>   -12.0748     2.7207    86.9848 </r>
       <r>   -11.9431    12.6333    88.6480 </r>
       <r>   -11.8115     3.1748    89.0660 </r>
       <r>   -11.6798    15.3681    91.0893 </r>
       <r>   -11.5482    18.2849    93.4966 </r>
       <r>   -11.4165    13.6757    95.2971 </r>
       <r>   -11.2848     8.2793    96.3872 </r>
       <r>   -11.1532     5.6883    97.1361 </r>
       <r>   -11.0215     8.2531    98.2226 </r>
       <r>   -10.8899    11.9307    99.7934 </r>
       <r>   -10.7582    17.8739   102.1466 </r>
       <r>   -10.6266     1.7829   102.3814 </r>
       <r>   -10.4949    20.4122   105.0688 </r>
       <r>   -10.3632     4.1910   105.6205 </r>
       <r>   -10.2316    23.2178   108.6773 </r>
       <r>   -10.0999    26.1367   112.1184 </r>
       <r>    -9.9683    19.1067   114.6339 </r>
       <r>    -9.8366    13.7033   116.4381 </r>
       <r>    -9.7050    17.9615   118.8028 </r>
       <r>    -9.5733    26.6535   122.3119 </r>
       <r>    -9.4416    21.9564   125.2026 </r>
       <r>    -9.3100    26.5761   128.7016 </r>
       <r>    -9.1783    23.7631   131.8301 </r>
       <r>    -9.0467    28.4513   135.5760 </r>
       <r>    -8.9150    20.0471   138.2153 </r>
       <r>    -8.7834    18.7523   140.6842 </r>
       <r>    -8.6517    21.9578   143.5751 </r>
       <r>    -8.5200    18.3543   145.9915 </r>
       <r>    -8.3884    16.1386   148.1163 </r>
       <r>    -8.2567    15.4948   150.1563 </r>
       <r>    -8.1251    15.1296   152.1482 </r>
       <r>    -7.9934    29.2710   156.0019 </r>
       <r>    -7.8618    16.2128   158.1365 </r>
       <r>    -7.7301    17.3304   160.4181 </r>
       <r>    -7.5984     7.5475   161.4118 </r>
       <r>    -7.4668     2.7942   161.7797 </r>
       <r>    -7.3351    15.6669   163.8423 </r>
       <r>    -7.2035    32.6993   168.1474 </r>
       <r>    -7.0718    17.1797   170.4093 </r>
       <r>    -6.9402     3.6862   170.8946 </r>
       <r>    -6.8085    19.9316   173.5187 </r>
       <r>    -6.6769    11.8783   175.0826 </r>
       <r>    -6.5452    16.5687   177.2640 </r>
       <r>    -6.4135     7.2454   178.2179 </r>
       <r>    -6.2819    12.0925   179.8099 </r>
       <r>    -6.1502    15.4222   181.8404 </r>
       <r>    -6.0186    14.1060   183.6975 </r>
       <r>    -5.8869    19.2640   186.2338 </r>
       <r>    -5.7553     8.2386   187.3184 </r>
       <r>    -5.6236    13.7981   189.1351 </r>
       <r>    -5.4919     3.7353   189.6268 </r>
       <r>    -5.3603     7.5149   190.6162 </r>
       <r>    -5.2286     9.0875   191.8127 </r>
       <r>    -5.0970    11.0638   193.2693 </r>
       <r>    -4.9653    17.3467   195.5531 </r>
       <r>    -4.8337    16.9187   197.7805 </r>
       <r>    -4.7020     3.2214   198.2047 </r>
       <r>    -4.5703     0.1333   198.2222 </r>
       <r>    -4.4387     0.0000   198.2222 </r>
       <r>    -4.3070     2.1534   198.5057 </r>
       <r>    -4.1754    17.3009   200.7835 </r>
       <r>    -4.0437     5.8620   201.5553 </r>
       <r>    -3.9121     0.0020   201.5556 </r>
       <r>    -3.7804     0.2966   201.5946 </r>
       <r>    -3.6487     3.0491   201.9960 </r>
       <r>    -3.5171     0.1916   202.0213 </r>
       <r>    -3.3854     3.9863   202.5461 </r>
       <r>    -3.2538    12.3000   204.1655 </r>
       <r>    -3.1221    10.4543   205.5419 </r>
       <r>    -2.9905     3.5094   206.0039 </r>
       <r>    -2.8588     2.1736   206.2901 </r>
       <r>    -2.7271     9.4585   207.5354 </r>
       <r>    -2.5955     0.1534   207.5556 </r>
       <r>    -2.4638     0.0500   207.5621 </r>
       <r>    -2.3322     3.1246   207.9735 </r>
       <r>    -2.2005     2.7244   208.3322 </r>
       <r>    -2.0689     0.8526   208.4444 </r>
       <r>    -1.9372     0.0000   208.4444 </r>
       <r>    -1.8055     0.0000   208.4444 </r>
       <r>    -1.6739     0.0972   208.4572 </r>
       <r>    -1.5422     9.2339   209.6729 </r>
       <r>    -1.4106    11.9317   211.2438 </r>
       <r>    -1.2789     4.0553   211.7777 </r>
       <r>    -1.1473     0.0002   211.7778 </r>
       <r>    -1.0156     0.8458   211.8891 </r>
       <r>    -0.8839     9.6642   213.1615 </r>
       <r>    -0.7523    23.9311   216.3122 </r>
       <r>    -0.6206    18.6273   218.7646 </r>
       <r>    -0.4890     5.6262   219.5053 </r>
       <r>    -0.3573     0.3956   219.5574 </r>
       <r>    -0.2257     4.0688   220.0931 </r>
       <r>    -0.0940    11.1892   221.5662 </r>
       <r>     0.0377    10.6322   222.9660 </r>
       <r>     0.1693     1.1735   223.1205 </r>
       <r>     0.3010    14.9333   225.0866 </r>
       <r>     0.4326     8.4712   226.2019 </r>
       <r>     0.5643     3.2689   226.6323 </r>
       <r>     0.6959     9.6390   227.9013 </r>
       <r>     0.8276    18.1881   230.2959 </r>
       <r>     0.9592     6.0259   231.0892 </r>
       <r>     1.0909    10.5396   232.4769 </r>
       <r>     1.2226    15.6638   234.5391 </r>
       <r>     1.3542     7.5369   235.5314 </r>
       <r>     1.4859    14.9770   237.5032 </r>
       <r>     1.6175    22.9903   240.5301 </r>
       <r>     1.7492    15.0331   242.5093 </r>
       <r>     1.8808    28.2362   246.2268 </r>
       <r>     2.0125     8.7391   247.3773 </r>
       <r>     2.1442    15.3537   249.3988 </r>
       <r>     2.2758    26.0617   252.8300 </r>
       <r>     2.4075    33.4536   257.2344 </r>
       <r>     2.5391    10.8823   258.6671 </r>
       <r>     2.6708     6.0883   259.4687 </r>
       <r>     2.8024     6.8533   260.3709 </r>
       <r>     2.9341     7.4524   261.3521 </r>
       <r>     3.0658     8.9951   262.5364 </r>
       <r>     3.1974     2.4138   262.8542 </r>
       <r>     3.3291     1.9509   263.1110 </r>
       <r>     3.4607     0.0010   263.1111 </r>
       <r>     3.5924     1.6078   263.3228 </r>
       <r>     3.7240     1.7673   263.5555 </r>
       <r>     3.8557     0.0004   263.5556 </r>
       <r>     3.9874     0.0000   263.5556 </r>
       <r>     4.1190     0.2966   263.5946 </r>
       <r>     4.2507     3.0492   263.9960 </r>
       <r>     4.3823     0.0300   264.0000 </r>
       <r>     4.5140     0.0000   264.0000 </r>
       <r>     4.6456     0.0000   264.0000 </r>
       <r>     4.7773     0.0000   264.0000 </r>
       <r>     4.9090     0.0000   264.0000 </r>
       <r>     5.0406     0.0000   264.0000 </r>
       <r>     5.1723     0.0000   264.0000 </r>
       <r>     5.3039     0.0000   264.0000 </r>
       <r>     5.4356     0.0000   264.0000 </r>
       <r>     5.5672     0.0000   264.0000 </r>
       <r>     5.6989     0.0000   264.0000 </r>
       <r>     5.8306     0.0000   264.0000 </r>
       <r>     5.9622     0.0000   264.0000 </r>
      </set>
     </set>
    </array>
   </total>
  </dos>
 </calculation>
 <structure name="finalpos" >
  <crystal>
   <varray name="basis" >
    <v>      12.30000019       0.00000000       0.00000000 </v>
    <v>       6.15000080      10.65211222       0.00000000 </v>
    <v>       0.00000000       0.00000000      20.00000000 </v>
   </varray>
   <i name="volume">   2620.41964732 </i>
   <varray name="rec_basis" >
    <v>       0.08130081      -0.04693905       0.00000000 </v>
    <v>       0.00000000       0.09387809       0.00000000 </v>
    <v>       0.00000000       0.00000000       0.05000000 </v>
   </varray>
  </crystal>
  <varray name="positions" >
   <v>       0.00000000       0.00000000       0.41799748 </v>
   <v>       0.20000000       0.00000000       0.41799748 </v>
   <v>       0.40000000       0.00000000       0.41799748 </v>
   <v>       0.60000000       0.00000000       0.41799748 </v>
   <v>       0.80000000       0.00000000       0.41799748 </v>
   <v>       0.00000000       0.20000000       0.41799748 </v>
   <v>       0.20000000       0.20000000       0.41749748 </v>
   <v>       0.40000000       0.20000000       0.41799748 </v>
   <v>       0.60000000       0.20000000       0.41799748 </v>
   <v>       0.80000000       0.20000000       0.41799748 </v>
   <v>       0.00000000       0.40000000       0.41799748 </v>
   <v>       0.20000000       0.40000000       0.41799748 </v>
   <v>       0.40000000       0.40000000       0.41799748 </v>
   <v>       0.60000000       0.40000000       0.41799748 </v>
   <v>       0.80000000       0.40000000       0.41799748 </v>
   <v>       0.00000000       0.60000000       0.41799748 </v>
   <v>       0.20000000       0.60000000       0.41799748 </v>
   <v>       0.40000000       0.60000000       0.41799748 </v>
   <v>       0.60000000       0.60000000       0.41799748 </v>
   <v>       0.80000000       0.60000000       0.41799748 </v>
   <v>       0.00000000       0.80000000       0.41799748 </v>
   <v>       0.20000000       0.80000000       0.41799748 </v>
   <v>       0.40000000       0.80000000       0.41799748 </v>
   <v>       0.60000000       0.80000000       0.41799748 </v>
   <v>       0.80000000       0.80000000       0.41799748 </v>
   <v>       0.06666667       0.06666660       0.41800609 </v>
   <v>       0.26666667       0.06666660       0.41800609 </v>
   <v>       0.46666667       0.06666660       0.41800609 </v>
   <v>       0.66666667       0.06666660       0.41800609 </v>
   <v>       0.86666667       0.06666660       0.41800609 </v>
   <v>       0.06666667       0.26666660       0.41800609 </v>
   <v>       0.26666667       0.26666660       0.41800609 </v>
   <v>       0.46666667       0.26666660       0.41800609 </v>
   <v>       0.66666667       0.26666660       0.41800609 </v>
   <v>       0.86666667       0.26666660       0.41800609 </v>
   <v>       0.06666667       0.46666660       0.41800609 </v>
   <v>       0.26666667       0.46666660       0.41800609 </v>
   <v>       0.46666667       0.46666660       0.41800609 </v>
   <v>       0.66666667       0.46666660       0.41800609 </v>
   <v>       0.86666667       0.46666660       0.41800609 </v>
   <v>       0.06666667       0.66666660       0.41800609 </v>
   <v>       0.26666667       0.66666660       0.41800609 </v>
   <v>       0.46666667       0.66666660       0.41800609 </v>
   <v>       0.66666667       0.66666660       0.41800609 </v>
   <v>       0.86666667       0.66666660       0.41800609 </v>
   <v>       0.06666667       0.86666660       0.41800609 </v>
   <v>       0.26666667       0.86666660       0.41800609 </v>
   <v>       0.46666667       0.86666660       0.41800609 </v>
   <v>       0.66666667       0.86666660       0.41800609 </v>
   <v>       0.86666667       0.86666660       0.41800609 </v>
   <v>       0.40000000       0.40000000       0.46800609 </v>
  </varray>
  <varray name="velocities" >
   <v>       0.00000000       0.00000000       0.00000000 </v>
   <v>       0.00000000       0.00000000       0.00000000 </v>
   <v>       0.00000000       0.00000000       0.00000000 </v>
   <v>       0.00000000       0.00000000       0.00000000 </v>
   <v>       0.00000000       0.00000000       0.00000000 </v>
   <v>       0.00000000       0.00000000       0.00000000 </v>
   <v>       0.00000000       0.00000000       0.00000000 </v>
   <v>       0.00000000       0.00000000       0.00000000 </v>
   <v>       0.00000000       0.00000000       0.00000000 </v>
   <v>       0.00000000       0.00000000       0.00000000 </v>
   <v>       0.00000000       0.00000000       0.00000000 </v>
   <v>       0.00000000       0.00000000       0.00000000 </v>
   <v>       0.00000000       0.00000000       0.00000000 </v>
   <v>       0.00000000       0.00000000       0.00000000 </v>
   <v>       0.00000000       0.00000000       0.00000000 </v>
   <v>       0.00000000       0.00000000       0.00000000 </v>
   <v>       0.00000000       0.00000000       0.00000000 </v>
   <v>       0.00000000       0.00000000       0.00000000 </v>
   <v>       0.00000000       0.00000000       0.00000000 </v>
   <v>       0.00000000       0.00000000       0.00000000 </v>
   <v>       0.00000000       0.00000000       0.00000000 </v>
   <v>       0.00000000       0.00000000       0.00000000 </v>
   <v>       0.00000000       0.00000000       0.00000000 </v>
   <v>       0.00000000       0.00000000       0.00000000 </v>
   <v>       0.00000000       0.00000000       0.00000000 </v>
   <v>       0.00000000       0.00000000       0.00000000 </v>
   <v>       0.00000000       0.00000000       0.00000000 </v>
   <v>       0.00000000       0.00000000       0.00000000 </v>
   <v>       0.00000000       0.00000000       0.00000000 </v>
   <v>       0.00000000       0.00000000       0.00000000 </v>
   <v>       0.00000000       0.00000000       0.00000000 </v>
   <v>       0.00000000       0.00000000       0.00000000 </v>
   <v>       0.00000000       0.00000000       0.00000000 </v>
   <v>       0.00000000       0.00000000       0.00000000 </v>
   <v>       0.00000000       0.00000000       0.00000000 </v>
   <v>       0.00000000       0.00000000       0.00000000 </v>
   <v>       0.00000000       0.00000000       0.00000000 </v>
   <v>       0.00000000       0.00000000       0.00000000 </v>
   <v>       0.00000000       0.00000000       0.00000000 </v>
   <v>       0.00000000       0.00000000       0.00000000 </v>
   <v>       0.00000000       0.00000000       0.00000000 </v>
   <v>       0.00000000       0.00000000       0.00000000 </v>
   <v>       0.00000000       0.00000000       0.00000000 </v>
   <v>       0.00000000       0.00000000       0.00000000 </v>
   <v>       0.00000000       0.00000000       0.00000000 </v>
   <v>       0.00000000       0.00000000       0.00000000 </v>
   <v>       0.00000000       0.00000000       0.00000000 </v>
   <v>       0.00000000       0.00000000       0.00000000 </v>
   <v>       0.00000000       0.00000000       0.00000000 </v>
   <v>       0.00000000       0.00000000       0.00000000 </v>
   <v>       0.00000000       0.00000000       0.00000000 </v>
  </varray>
 </structure>
</modeling>
