  51   51
1 1
    62.959449277062362    -0.114072650687924     0.009839510488499
    -0.114072650687924    63.091169042873084     0.005680844106613
     0.009839510488499     0.005680844106613    13.939629315234606
1 2
    -4.900872733729033     0.182193369072509    -0.005722127147959
    -0.182192671506521     2.570388590698360     0.001498164116640
     0.005722126609967     0.001498162743760     0.550641815234606
1 3
    -0.175285205763791     0.054187243360898     0.006093865206468
    -0.049208646071178     0.224336865451834     0.004548104682345
    -0.008040385512752     0.000353861477304    -0.006043217424263
1 4
    -0.187853030775401    -0.076393792699999     0.000999403913850
    -0.072429571127486     0.258638959767890    -0.006227826521625
    -0.003159427944359     0.004627557251940     0.013683623060956
1 5
    -4.845348448085772    -0.502148588792199    -0.004033306989993
     0.394453441138654     2.625075695359435    -0.008823884041048
    -0.044567014887189    -0.010561157278793     0.550382782575737
1 6
     0.702573133123729    -3.417344145975793    -0.001563616214764
    -3.052958105380222    -3.033057275661656    -0.005704588656545
     0.004158511470839     0.004206425359214     0.550641815234606
1 7
    -0.639745415299178    -0.408472750015484     0.004508368336155
    -0.408472746554462    -0.168081642464839     0.002602907986507
     0.007993580773798     0.004615095246594    -0.083423397078915
1 8
    -0.376739951762917    -0.034991573817463    -0.010613454000607
    -0.064490361089477     0.040374020401410    -0.003726197518183
     0.000798522467894     0.001823415718651     0.025341646600724
1 9
    -0.963641455068287     0.167233587240005    -0.051088237782919
     0.309066292037862    -0.308176836676646     0.049841414979322
    -0.013458362372258    -0.002284112076207    -0.090324103399275
1 10
     0.453024836979818     3.352302344009119     0.006055941210673
     2.888170623694617    -2.718679455904919    -0.005283318493771
     0.000992528332114    -0.014078531998843     0.507821852921086
1 11
     0.126587111715506    -0.223494713745282     0.006985706552100
    -0.120098833727190    -0.077535475546162     0.003003390040723
    -0.003713739609623    -0.007140109291225    -0.006043217424263
1 12
    -0.106981458535311    -0.220235544349375    -0.008533709643919
    -0.190736757413174    -0.229384472152403    -0.007328420687518
     0.001978394600098    -0.000220169646076     0.025341646600724
1 13
    -0.013595248620043    -0.298770646979822     0.042679779698982
    -0.298770578546771     0.331395388972112     0.024641180917175
    -0.028975966525340    -0.016729280787190    -0.021133311962577
1 14
     0.215121049756506    -0.091766375749144    -0.002188330906213
     0.006705750227422     0.053810645021375    -0.004639757826084
     0.010734122845253    -0.002653505190753     0.008945146600725
1 15
    -0.124426613780957    -0.082850600418681    -0.004644517789401
    -0.179149470319427    -0.525927409566894     0.012655897032086
     0.004608174544258     0.002341098008334    -0.077835467424263
1 16
     0.082573601475082    -0.228560377031442    -0.004893754080006
    -0.232524645937583    -0.011787662628365     0.003979423914527
     0.002427869140783    -0.005049921376313     0.013683623060956
1 17
    -0.265799131992324    -0.093833245570906     0.017619807592617
    -0.235665950708012    -1.006019160389725    -0.069164419644305
    -0.008707287571215    -0.010513220456080    -0.090324103399275
1 18
     0.057305942014041     0.097820357970604    -0.005112314015059
    -0.000651768351878     0.211625753430937     0.000424729868067
     0.003069052622858     0.010622768825710     0.008945146600725
1 19
    -0.122023295516918     0.004130397429407     0.007466657433784
     0.004130388323441    -0.126792560696438     0.004310876516408
     0.000815247327065     0.000470681712245     0.012688123060956
1 20
    -0.120676291142573    -0.160235786425231    -0.001083221058836
    -0.232399044919903    -0.336743107258988    -0.004981200968715
     0.002657770865361     0.004655145749194     0.016967488003037
1 21
     0.710835893866172    -2.813411565246635    -0.009658361618992
    -3.710013604453019    -2.931108622821001     0.000918997120376
    -0.031429741052537    -0.033315586162229     0.550382782575737
1 22
     0.776451070740046     2.701440367914938    -0.001547517347219
     3.165572094744632    -3.042105689871643     0.007886259053231
    -0.011696102377611     0.007898821527620     0.507821852921086
1 23
    -0.539001586022303     0.060205512102336     0.008638068308829
     0.156504372584302    -0.111352460872889    -0.010350218713755
     0.004331536913741     0.002820246758862    -0.077835467424263
1 24
    -0.452742194669940    -0.040680620023765    -0.004855457237689
     0.031482691678711    -0.004677177587369     0.001552504886284
     0.005360359257929    -0.000025877270521     0.016967488003037
1 25
    -0.744832860990517    -0.298698751390841     0.003527511100423
    -0.298698708896741    -0.399925113850574     0.002036609681378
     0.005868547501153     0.003388207969542    -0.088816511996963
1 26
   -21.928696199727462    -6.668625330562235    -0.000521699993721
    -6.668625330281603   -14.228429759249959    -0.000301203094498
    -0.007245314509797    -0.004183083960983    -6.083223028171279
1 27
     0.420893078255721     0.919228119526331    -0.003703091429440
     0.744174266571266    -0.031204929807637    -0.003113461302385
    -0.000125120746900    -0.007980014569946     0.491561445125167
1 28
    -0.009558321736181    -0.002532795868795    -0.025052641897811
     0.097399982154331    -0.118775084484823     0.013550157599575
     0.013865148895114     0.008214016302343    -0.062214213378346
1 29
     0.301633935935127    -0.679731831324321     0.053049200114281
    -0.781961713061376     0.113033339185771    -0.022454573812788
     0.031225272806548    -0.027566169014766     0.522227786621656
1 30
   -21.926331926798539     6.808882457403657    -0.002874600354085
     6.725790715457177   -14.629676191383357    -0.011902946274587
     0.007874552723296     0.017539979054638    -6.121675554874834
1 31
     0.802094010332964     0.524087764296619    -0.004547882851540
     0.699141624932567    -0.412405872897126    -0.001650239525075
    -0.006973456322602     0.003881650201605     0.491561445125167
1 32
     0.603830758444310     0.265053261686891     0.012329020408770
     0.265053252335643     0.297773573621744     0.007118163218716
    -0.008101522386833    -0.004677412146889    -0.044883695155722
1 33
     0.744074942540048    -0.271578313432442    -0.228130714882860
    -0.143024213058005     0.314989672943816     0.183074319185507
     0.007279688939036     0.008527999927609    -0.061337695399857
1 34
     1.073931512489923    -0.266706521410215    -0.018670024725817
    -0.411137878397585    -0.554613829237547    -0.009400693058678
    -0.009976972912067     0.019437294016685     0.449817554844279
1 35
    -1.713930691515363     0.123436917130600     0.006087705767515
    -0.044977479100207     0.804929585382232     0.005599411524559
    -0.002235161315677     0.001401548923655    -0.364307304874833
1 36
    -0.050392200542373     0.120975420906581    -0.000791542582854
     0.021042634702253    -0.077941194123949    -0.028471302290347
     0.014046120323477     0.007900560617264    -0.062214213378346
1 37
     0.242732894291888     0.146425829285772     0.044481640756941
     0.017871758736643     0.816331748404488    -0.289104173986861
     0.011025301269683     0.002040381144487    -0.061337695399857
1 38
    -0.240172203133270     0.038709595674310     0.111806174023489
     0.038709593428643    -0.284870094440423     0.064551315096789
    -0.015410490404057    -0.008897240959196    -0.004244695399857
1 39
    -0.024666727059828    -0.028722288831277    -0.011379500368201
    -0.034021696310946     0.143749800708332     0.005915623358876
    -0.002484495948447    -0.000149541046652     0.004050786621654
1 40
    -0.006333904767948     0.172085411232645     0.006703154049378
     0.216995385420223     0.342425191180258    -0.001325883084743
    -0.000269735848306    -0.002891716897927     0.010699711333724
1 41
    -0.472748444202819    -0.334871791907791     0.007078372064512
    -0.232641918304429     0.887415707736854     0.057169242153744
    -0.008260364082106     0.040824962571752     0.522227786621656
1 42
    -0.440992655436615     0.463504138405561    -0.017476252573680
     0.607935476731756     0.960310338582133    -0.011468367236325
     0.011844708998817    -0.018358959791509     0.449817554844279
1 43
     0.074476742427175    -0.091262207207378    -0.000566671374247
    -0.085962807896839     0.044606342779341    -0.012812747271301
    -0.001371755010104    -0.002076864015333     0.004050786621654
1 44
     0.016534088146162     0.034220307987817    -0.003347018869250
     0.034220312943550    -0.022980133556282    -0.001932401582429
    -0.000447325756917    -0.000258262675651    -0.005004259673234
1 45
     0.075660587595295     0.342165832838473    -0.002089186402762
     0.308307076056621     0.341320217781590     0.002877497206633
    -0.003482669789729    -0.002018666590930     0.011489740326766
1 46
   -10.593154688879757     0.182576778160527    -0.011745554245912
     0.265668527548663   -25.962853417775108     0.003461997758305
     0.019127344279953    -0.001950428751436    -6.121675554874834
1 47
     0.209188303957165    -1.155290927639511     0.007893085229837
    -0.986876523612819    -1.118189421041118     0.002472402328595
     0.000096196744148    -0.002636480296711    -0.364307304874833
1 48
     0.423712369020648    -0.031291948421923     0.002203328224435
    -0.076201914836796    -0.087621108439533     0.006468044197897
    -0.002639167855204     0.001212261016474     0.010699711333725
1 49
     0.556568350476677     0.030654803719245     0.001447391817586
     0.064513570368657    -0.139587545083642    -0.003248036426483
    -0.003489549931801    -0.002006746983326     0.011489740326766
1 50
     0.340274570997044     1.394827891440706    -0.000702653874611
     1.394827799761883    -1.270334039120770    -0.000405676843888
     0.009674546509986     0.005585601276678    -0.402391038666276
1 51
     0.017014823912027     0.450227976730323     0.079643269961244
     0.450227958972055    -0.502863735691204     0.045982060331058
     0.028846393421762     0.016654471726710     0.021014853620363
2 1
    -4.900872733729033    -0.182192671506521     0.005722126609967
     0.182193369072509     2.570388590698360     0.001498162743760
    -0.005722127147959     0.001498164116640     0.550641815234606
2 2
    62.959449259879690     0.114064313946099    -0.009839511026559
     0.114064313946099    63.091168995614815     0.005680844805495
    -0.009839511026559     0.005680844805495    13.939629315234608
2 3
    -4.845348466540363     0.502149243034808     0.004033306452149
    -0.394452786624093     2.625075708348843    -0.008823885189181
     0.044567015035324    -0.010561163828858     0.550382782575737
2 4
    -0.187853036645050     0.076393777338896    -0.000999404840470
     0.072429520851735     0.258638938621106    -0.006227827083516
     0.003159426173402     0.004627556831098     0.013683623060956
2 5
    -0.175285208721898    -0.054187210906918    -0.006093865744312
     0.049208678661197     0.224336825883279     0.004548104882807
     0.008040385659908     0.000353861023149    -0.006043217424263
2 6
     0.702573122466875     3.417344086313579     0.001563615677121
     3.052958075215519    -3.033058143659960    -0.005704589475854
    -0.004158510395203     0.004206425912785     0.550641815234606
2 7
     0.453024824023687    -3.352302390080256    -0.006055941748413
    -2.888170651527949    -2.718678632483436    -0.005283318298644
    -0.000992527826465    -0.014078532220577     0.507821852921085
2 8
    -0.963641462426628    -0.167233420683989     0.051088237245073
    -0.309066110861342    -0.308176772719571     0.049841407565065
     0.013458360693702    -0.002284119949311    -0.090324103399275
2 9
    -0.376739965709219     0.034991662222621     0.010613453462761
     0.064490464129163     0.040373993825749    -0.003726199542573
    -0.000798524146870     0.001823421906121     0.025341646600724
2 10
    -0.639745423744181     0.408472849274664    -0.004508368874097
     0.408472864455103    -0.168081756548651     0.002602907975667
    -0.007993580268029     0.004615096665114    -0.083423397078914
2 11
    -0.124426634802246     0.082850664475590     0.004644517251557
     0.179149532650523    -0.525927462434784     0.012655895802560
    -0.004608173664349     0.002341097920073    -0.077835467424263
2 12
     0.215121020874104     0.091766362437693     0.002188330368367
    -0.006705766072628     0.053810647215084    -0.004639758728533
    -0.010734111623850    -0.002653504020059     0.008945146600725
2 13
    -0.013595239597821     0.298770523983816    -0.042679778726709
     0.298770579577974     0.331395322640261     0.024641183375704
     0.028975966525933    -0.016729284644780    -0.021133311962577
2 14
    -0.106981450902353     0.220235573920957     0.008533709106072
     0.190736784462069    -0.229384553193711    -0.007328422434956
    -0.001978383378397    -0.000220169124083     0.025341646600724
2 15
     0.126587111484009     0.223494744375774    -0.006985707089944
     0.120098862638163    -0.077535516099752     0.003003390359949
     0.003713740489614    -0.007140109083719    -0.006043217424263
2 16
    -0.122023228352907    -0.004130307998013    -0.007466657672456
    -0.004130308580163    -0.126792646040941     0.004310877417863
    -0.000815246441509     0.000470684832005     0.012688123060956
2 17
     0.057305907469016    -0.097820362061662     0.005112313477213
     0.000651780606452     0.211625773304812     0.000424728576243
    -0.003069062165595     0.010622775056647     0.008945146600725
2 18
    -0.265799118712929     0.093833284494296    -0.017619808130463
     0.235666005974079    -1.006019223974063    -0.069164417908982
     0.008707278028477    -0.010513227437711    -0.090324103399275
2 19
     0.082573517167527     0.228560448384645     0.004893753663851
     0.232524678478787    -0.011787664334137     0.003979422273149
    -0.002427868255403    -0.005049924064124     0.013683623060956
2 20
    -0.120676286332658     0.160235719450470     0.001083220186845
     0.232399039378957    -0.336743155212812    -0.004981201669733
    -0.002657769342263     0.004655146102908     0.016967488003037
2 21
    -0.539001563684159    -0.060205431279432    -0.008638068846673
    -0.156504288957700    -0.111352448941281    -0.010350218174491
    -0.004331537940729     0.002820247250175    -0.077835467424263
2 22
     0.776451060203302    -2.701440455142994     0.001547516809076
    -3.165572169435101    -3.042104914845711     0.007886258236069
     0.011696101366255     0.007898819970063     0.507821852921086
2 23
     0.710835850326227     2.813411479563914     0.009658361081148
     3.710013521716204    -2.931109487230594     0.000918995223176
     0.031429740026027    -0.033315590260608     0.550382782575737
2 24
    -0.744832786667222     0.298698873418607    -0.003527511500142
     0.298698926531244    -0.399925283375270     0.002036609779330
    -0.005868548262824     0.003388207818141    -0.088816511996963
2 25
    -0.452742282266315     0.040680709596005     0.004855456913913
    -0.031482538278788    -0.004677135800476     0.001552503366421
    -0.005360360019660    -0.000025875624126     0.016967488003037
2 26
   -21.928695766380468     6.668627238739615     0.000521699455859
     6.668626736082592   -14.228431096574834    -0.000301203774974
     0.007245314509949    -0.004183084925543    -6.083223028171281
2 27
   -21.926331933209948    -6.808879516465931     0.002874599816241
    -6.725787767177553   -14.629674389340074    -0.011902947268421
    -0.007874552521331     0.017539980883397    -6.121675554874834
2 28
     0.301633917656882     0.679731837666032    -0.053049200652127
     0.781961718233999     0.113033132883699    -0.022454567359473
    -0.031225271618896    -0.027566164793658     0.522227786621656
2 29
    -0.009558324694424     0.002532843666830     0.025052641359963
    -0.097399935574233    -0.118775072986631     0.013550153652373
    -0.013865147706249     0.008214018085547    -0.062214213378346
2 30
     0.420893062568586    -0.919228154254021     0.003703090891596
    -0.744174293718066    -0.031204720450460    -0.003113462406545
     0.000125120948650    -0.007980015367198     0.491561445125167
2 31
    -1.713930705490067    -0.123436676174011    -0.006087706305360
     0.044977742839949     0.804929590131838     0.005599411724201
     0.002235160418601     0.001401548736587    -0.364307304874833
2 32
     1.073931497854592     0.266706408134026     0.018670024187198
     0.411137757795262    -0.554613924493330    -0.009400696155872
     0.009976969567412     0.019437297766920     0.449817554844279
2 33
     0.744074941299953     0.271578184437166     0.228130726362833
     0.143024151686286     0.314989629211878     0.183074302859839
    -0.007279671676519     0.008528000896663    -0.061337695399857
2 34
     0.603830751862572    -0.265053312337218    -0.012329020946875
    -0.265053310355971     0.297773636385400     0.007118164249037
     0.008101519041682    -0.004677418304699    -0.044883695155722
2 35
     0.802094003007266    -0.524087858329189     0.004547882313696
    -0.699141696288756    -0.412405717132866    -0.001650240741733
     0.006973455425721     0.003881649162414     0.491561445125167
2 36
    -0.024666751173311     0.028722301064790     0.011379499830354
     0.034021712820211     0.143749812771266     0.005915621232474
     0.002484494524957    -0.000149543759232     0.004050786621654
2 37
    -0.240172144879249    -0.038709467868301    -0.111806170126274
    -0.038709474269106    -0.284870183650643     0.064551337056293
     0.015410481773047    -0.008897255481877    -0.004244695399857
2 38
     0.242732844661347    -0.146425812959531    -0.044481634603747
    -0.017871716763777     0.816331799849547    -0.289104150934392
    -0.011025309901246     0.002040395083465    -0.061337695399857
2 39
    -0.050392197691831    -0.120975405242853     0.000791542045006
    -0.021042614773110    -0.077941208434307    -0.028471303006794
    -0.014046121747339     0.007900564868984    -0.062214213378346
2 40
    -0.006333929869403    -0.172085444737547    -0.006703154704941
    -0.216995400207583     0.342425225195958    -0.001325883277298
     0.000269734909286    -0.002891716933738     0.010699711333724
2 41
     0.074476706915776     0.091262206354977     0.000566670836400
     0.085962808928513     0.044606329275563    -0.012812747957801
     0.001371755244502    -0.002076866642338     0.004050786621654
2 42
    -0.440992666066212    -0.463504052388956     0.017476252036270
    -0.607935402579435     0.960310474835488    -0.011468370175247
    -0.011844702308879    -0.018358958213833     0.449817554844279
2 43
    -0.472748429955146     0.334871863909072    -0.007078372602360
     0.232641992228298     0.887415609240475     0.057169242485304
     0.008260364317533     0.040824963915017     0.522227786621656
2 44
     0.075660577512846    -0.342165832019453     0.002089185864904
    -0.308307054544246     0.341320295691665     0.002877496317522
     0.003482669201076    -0.002018665222769     0.011489740326766
2 45
     0.016534076957555    -0.034220299325265     0.003347018331476
    -0.034220283545425    -0.022980128545545    -0.001932402639051
     0.000447325168186    -0.000258264567010    -0.005004259673234
2 46
     0.209188303207480     1.155290911165350    -0.007893085767682
     0.986876529503229    -1.118189702753958     0.002472402768652
    -0.000096196048906    -0.002636480954088    -0.364307304874833
2 47
   -10.593154709706578    -0.182575356287619     0.011745553708067
    -0.265667083656948   -25.962853373548185     0.003461995583161
    -0.019127343585323    -0.001950425534337    -6.121675554874834
2 48
     0.340274638305221    -1.394827780913112     0.000702653324283
    -1.394827863331667    -1.270333752944980    -0.000405677570115
    -0.009674546040702     0.005585602728944    -0.402391038666276
2 49
     0.556568339867203    -0.030654862974556    -0.001447392355309
    -0.064513611941884    -0.139587538807014    -0.003248036844719
     0.003489551109351    -0.002006747447876     0.011489740326766
2 50
     0.423712329037466     0.031291929915085    -0.002203329114050
     0.076201913361985    -0.087621072960419     0.006468043541247
     0.002639168324808     0.001212260500746     0.010699711333725
2 51
     0.017014783342438    -0.450227959348027    -0.079643267290294
    -0.450227932760576    -0.502863652106716     0.045982064765535
    -0.028846393422349     0.016654475567056     0.021014853620363
3 1
    -0.175285205763791    -0.049208646071178    -0.008040385512752
     0.054187243360898     0.224336865451834     0.000353861477304
     0.006093865206468     0.004548104682345    -0.006043217424263
3 2
    -4.845348466540363    -0.394452786624093     0.044567015035324
     0.502149243034808     2.625075708348843    -0.010561163828858
     0.004033306452149    -0.008823885189181     0.550382782575737
3 3
    63.062764811410105     0.249029680975805    -0.065343130427126
     0.249029680975805    63.332345428643642     0.033040987401058
    -0.065343130427126     0.033040987401058    14.026152749916877
3 4
    -4.400859642645054     0.128277126811945     0.001016033829034
    -0.140365982369502     2.451872958348619     0.009973741135555
     0.065077335213711    -0.061127697490812     0.463315340402086
3 5
    -0.170955180911893     0.041983684708894     0.025465697376413
    -0.041983688555604     0.239889793261025     0.010245284774010
    -0.025465697229521     0.010245288781599     0.027513749916868
3 6
    -0.312102819564161     0.191205556482089    -0.000276636603529
     0.287504434093842    -0.338251254165837    -0.005161345258509
     0.013282586636075    -0.002305678857595    -0.077835467424263
3 7
     0.914398351874705     3.394948015904429    -0.022063054433168
     2.848791671472999    -2.768111421655447     0.036136812140557
     0.018921529911509     0.013658506853017     0.487647820262216
3 8
     0.458023065410962    -3.468264416334570     0.209440300365799
    -2.503259922646936    -3.011241643331780    -0.081869663663414
    -0.039900135167108     0.014089768627880     0.574108363941855
3 9
    -0.084554687894410    -0.183179691903826    -0.021106233416513
     0.120486146093717    -0.271372189316533    -0.030959339539154
     0.083558805684610     0.004782420285481    -0.092383886058145
3 10
    -0.091000395915210     0.025619495273730     0.003164752550896
     0.133959282541307    -0.063532766064149     0.004940357523597
     0.018301892790891    -0.014179735997070     0.019512320262216
3 11
     0.260277135752338     0.289080174147745     0.006090719386812
     0.237609226795129    -0.043807151566648     0.015525752218810
     0.016491055956072    -0.002488160180943     0.019122249916868
3 12
     0.333220450903528     0.036128451723203    -0.034152023425098
     0.080635273834226    -0.790036523077146    -0.020268170841970
     0.029202834456352    -0.007191570566547    -0.086077136058145
3 13
    -0.044474136784312     0.561469348388661     0.057366791370148
    -0.077293007934335    -0.137799566243208     0.041526353082882
    -0.053384706634840     0.123186273599703     0.065375819092369
3 14
    -0.015877420115591    -0.016681572636349     0.007266717250833
    -0.218465175189312    -0.068742880273493    -0.009011501716404
     0.016797098962643     0.036989084825223     0.009665613941856
3 15
    -0.049938077390421     0.085554928536333     0.003348782361893
     0.066749843022263    -0.211100288197299     0.009404646968687
     0.019970367120990    -0.007661381346951     0.011838499916868
3 16
    -0.038560447052328    -0.022990641844178     0.001239523529343
     0.075361713676675    -0.290875832478376     0.005682809815003
     0.004171283848010    -0.002439017436979     0.012692590402087
3 17
    -0.086176564083603    -0.077182382681916    -0.004236064534277
    -0.075096036368231    -0.154728201184556     0.015891549315907
     0.004018544499603    -0.010192111615372     0.011477613941855
3 18
     0.100928393605751    -0.174626579358799    -0.010399694020149
    -0.118092017906371     0.059359242996141     0.006309945036176
    -0.003120631845864    -0.002577652534775     0.008206113941855
3 19
    -0.096971808926213     0.043821073552757    -0.002259994388580
     0.026007636512056    -0.604893172631945    -0.003028705912727
    -0.021262110766254     0.005811052505730    -0.079590409597914
3 20
     0.235604233860289     0.109853160313076     0.000946533488493
     0.267110145862870    -0.183209028574805     0.000339970962627
     0.027095336860216    -0.013967861944205     0.005325705344168
3 21
    -0.236759612049969     0.022306557691458    -0.016620132895953
     0.041111641352510    -0.024278734341873    -0.013464154544233
     0.006470271601309    -0.007602454747314     0.011838499916868
3 22
    -0.397800886589802    -0.219839969199405    -0.003344526704442
    -0.157893983720428    -0.285134272945049    -0.001669874278513
    -0.010541914407709    -0.004715270654391    -0.082907929737784
3 23
     0.923460914343811    -2.851183220690582    -0.019240285688616
    -3.369697716716855    -2.668165893664036    -0.010403034772937
    -0.000610850431287     0.021864094963077     0.468912749916868
3 24
     0.653178813096480     2.777637628841957     0.007319776691791
     3.484460467237350    -3.043592592979009     0.005659857698193
    -0.014012235730578    -0.054370576802548     0.549476205344168
3 25
    -0.453907918450494     0.173987419963310     0.003873506227061
     0.238143295823913    -0.251532032911674    -0.006968688827134
     0.002850657165310     0.010953148571267    -0.078236544655832
3 26
     0.326621629765537    -0.752528545118712     0.012805413037433
    -0.863033847123673     0.177288550114508     0.002041811622380
    -0.008072892277372     0.000253323884507     0.491415288636766
3 27
   -22.058660404570411     6.695780519676020    -0.025035087063034
     6.539858432966231   -14.519518688797248     0.009075755385407
     0.029457249366714    -0.025084969830500    -6.186361837533703
3 28
   -22.305151804562314    -6.622385305924431    -0.129596387531404
    -7.001570131890626   -14.281704455516197     0.012712382285628
     0.016347147398605     0.065696577830323    -6.059517996037217
3 29
     0.175656703109004     0.668142456565808     0.011353954480689
     0.726331619851952    -0.005285190737211    -0.020327021987421
     0.020354775987029    -0.034806062296888     0.495230253962785
3 30
     0.025862590375343     0.009088213528926    -0.001696595987679
    -0.022797925009791    -0.008232351798304    -0.000636453306926
     0.009961673031627     0.018780022023878    -0.064380837533703
3 31
     0.588221250515053    -0.575685078060673    -0.007857876919539
    -0.443814513683677    -0.467344921912254    -0.007653023325105
    -0.015760043397475     0.000738449006816     0.461722912466297
3 32
    -1.901331474381814    -0.121484395205685     0.073557909773417
    -0.164164771557865     1.053704240822496    -0.063804047450758
    -0.043133175331680     0.017440477954923    -0.345489227814590
3 33
     0.812835266057356     0.626505086358542     0.385728154086390
     0.106350569843586    -0.520080763717818    -0.131454002701531
    -0.014487655270698    -0.063275782332754     0.526498521941264
3 34
     0.192462779640530    -0.037460337967379    -0.047622453250299
    -0.120395037793193     0.060448050063723    -0.015377989734220
    -0.055184155817189    -0.043176843104668    -0.049019977814590
3 35
     0.240808855693883    -0.138589950825864     0.002095376408459
    -0.251195385746210     0.274903690078728    -0.003176577451869
    -0.012116535303683     0.010541685658287    -0.042571587533703
3 36
    -0.323763323072745    -0.004470500650624    -0.019862896030415
    -0.350767024681327     0.288012889341658    -0.021514095563246
    -0.020256305651924     0.005396416544808     0.018899003962785
3 37
    -0.379953237785816     0.026126273740077    -0.101737264909045
     0.244638290233908     0.156643022274589     0.152467661585896
    -0.027792711461398    -0.000809993575463    -0.020435478058723
3 38
     0.093624696374582    -0.012771193438545    -0.106286414582843
     0.078283971479200    -0.136154936229213    -0.028833897455228
     0.022503625026467    -0.010733822912673    -0.063239728058731
3 39
     0.107980331843584    -0.068779193644974    -0.002945071524723
     0.057799112218222     0.505341070250152     0.003994662637723
    -0.021410773575862    -0.006401554541493    -0.048266746037215
3 40
    -0.085041131494434     0.006389929296242     0.006776408948949
    -0.039703569539499     0.089522683466508     0.014433915802534
    -0.017317164371547     0.009630446815617    -0.056451321325145
3 41
     0.035917052492942     0.005101178140948    -0.019877577254379
     0.062785695258395    -0.014087036740983    -0.003801355097246
    -0.003864365528560     0.009440708638642    -0.008161746037214
3 42
     0.065806121807165     0.215302456488238     0.035612293575794
     0.145290131286310     0.162781576760259     0.021591990226986
     0.009023339443561     0.001480150174918     0.006772022185411
3 43
    -0.533427538632838    -0.301982424482570     0.003578159912234
    -0.349363626830923     0.638204952216432     0.009350114697646
     0.019100287959095    -0.023116758644214     0.479464503962786
3 44
    -0.634090644679959     0.384408768633770    -0.013404023180656
     0.193139011514945     1.027386225414964    -0.029465117715796