51   
62   

1    
  0.0100000000000000   0.0000000000000000   0.0000000000000000
  -0.6770294100   -0.0349079100    0.0092404300
   0.0969037600   -0.0296270200    0.0095003500
  -0.1574171100    0.0136353200   -0.0260958100
   0.0019967100   -0.2071455900   -0.0270228000
   0.2071399800    0.0191644900   -0.0260132800
  -0.0071419300    0.0894728000    0.0093822700
   0.4353723400    0.2517648200   -0.0000011700
   0.0983892200   -0.2048382700    0.1650576600
  -0.0844311500   -0.2068020000    0.1655652000
  -0.4335975100    0.2143993400   -0.0000245000
  -0.0684497700   -0.1427190100   -0.0261249600
  -0.1293969300    0.1861912800    0.1651970400
   0.0009143400    0.0029359400  -48.1614197200
   0.1281282100    0.1855154300    0.1651137800
   0.0682742200   -0.1443074300   -0.0260368000
  -0.1808975600    0.1062231900   -0.0269129600
  -0.2220017200    0.0222629700    0.1648806000
   0.2243686300    0.0188932600    0.1651229100
   0.1813591300    0.1037207200   -0.0270908300
   0.0010229200   -0.0114632600    0.0178419400
   0.0851369100    0.1588464900   -0.0259789400
  -0.0078671900   -0.5221512500    0.0000191000
  -0.0867227900    0.1300179400   -0.0261181100
  -0.0069713800    0.0067168300    0.0179240100
   0.0186787100    0.0095304800    0.0177736600
   0.2249278300    0.0703812500   -0.0060755100
   0.0931052300   -0.2265966800    0.0102083800
   0.1941268400    0.2508966100    0.2572563100
  -0.1971495600    0.2571555600    0.2564690600
   0.1162990400   -0.2814003500    0.0101314800
  -0.1479508200    0.1875523200    0.0101616200
  -0.4476318600   -0.2572999700   -0.3555111600
  -0.0079671000   -5.0731255700   -4.3463009300
   0.4310994100   -0.2525856800   -0.3551383900
   0.1568184600    0.1913972800    0.0100156800
   0.3145901400    0.0417563300    0.2570837300
  -4.3981111000    2.5358493200   -4.3488294200
   4.3981640700    2.5380926100   -4.3496433600
  -0.3138290700    0.0434335100    0.2571509600
   0.0001408500    0.0807810500   -0.0221385100
   0.1243722800   -0.2900235400    0.2568733800
   0.0042148700    0.5053387200   -0.3551605700
  -0.1204917700   -0.2924118800    0.2570591900
  -0.0823250000   -0.0478109700   -0.0264325000
   0.0814663700   -0.0509223300   -0.0264029000
  -0.1308098100    0.0233366000    0.0102008500
   0.2347982100    0.0361291800    0.0100540400
   0.0670882600   -0.0407714700   -0.0220882200
  -0.0054556200    0.0945268500   -0.0264591000
  -0.0747874600   -0.0548718100   -0.0220538200
  -0.0004633300   -0.0041364700   59.9857906500

1    
 -0.0100000000000000   0.0000000000000000   0.0000000000000000
   0.5821588300   -0.0371902500    0.0094408300
  -0.0011144400   -0.0258774000    0.0093882500
  -0.1609469500    0.0147517100   -0.0259677000
  -0.0017447900   -0.2086764700   -0.0270003100
   0.1102437100    0.0090144300   -0.0260819800
   0.0070011400    0.0211783500    0.0093563000
   0.4225154400    0.2436223200    0.0000946100
   0.0908510200   -0.2055174400    0.1648517700
  -0.1037437400   -0.2034740000    0.1645400500
  -0.4244694700    0.2813712400    0.0001025800
  -0.0658752100   -0.1472300300   -0.0259805100
  -0.1315128900    0.1818192800    0.1650367200
   0.0005824400   -0.0031144200  -48.1604902200
   0.1324232600    0.1836848200    0.1650785100
   0.0658240100   -0.1459771700   -0.0261308800
  -0.1792344700    0.1016358800   -0.0270133500
  -0.2273580400    0.0203872000    0.1652420900
   0.2254966400    0.0208097600    0.1650341800
   0.1789068400    0.1038107600   -0.0269391900
  -0.0013643500   -0.0146542600    0.0178226400
   0.0993088800    0.1025598500   -0.0261660200
   0.0075677000   -0.4680670700   -0.0000078100
  -0.0974756100    0.1312140500   -0.0259400500
  -0.0160167700    0.0059019200    0.0178315800
   0.0038404200    0.0035732000    0.0178516400
  -0.2135802500   -0.0628288300   -0.0060886400
   0.1015411500   -0.2082337900    0.0101405800
   0.1939774500    0.2508235000    0.2567547000
  -0.1911141400    0.2435688900    0.2575333700
  -0.3223224800   -0.1452456400    0.0100869100
  -0.1319107600    0.1980668600    0.0100776000
  -0.4355209000   -0.2520039700   -0.3552583900
   0.0069922500   -5.0786166100   -4.3510135400
   0.4525375300   -0.2579427300   -0.3555016500
   0.1225237100    0.1938750500    0.0101440900
   0.3135674300    0.0442152400    0.2570674000
  -4.3932795600    2.5387862800   -4.3479687600
   4.3933912900    2.5388654200   -4.3474682300
  -0.3143226500    0.0428300400    0.2569313800
   0.0000075600    0.0842451300   -0.0220050800
   0.1148865500   -0.2967157800    0.2570181700
  -0.0046436500    0.5145932500   -0.3555033800
  -0.1189900200   -0.2942248500    0.2570526500
  -0.0819879600   -0.0471486800   -0.0264936600
   0.0829846000   -0.0440760200   -0.0264374000
  -0.3427770600    0.0269168700    0.0099702400
   0.2389580100    0.0130031900    0.0102168300
   0.0755622900   -0.0414080200   -0.0220339300
   0.0057141700    0.0951634900   -0.0264225700
  -0.0679966800   -0.0269452700   -0.0220667200
  -0.0000615200    0.0048807500   59.9873143100

1    
  0.0000000000000000   0.0000000000000000   0.0100000000000000
  -0.0477200800   -0.0275512000   -0.1300286900
   0.0474499800   -0.0275718200    0.0039052300
  -0.1590285800    0.0143704600   -0.0259906100
   0.0000583300   -0.2078715300   -0.0271373700
   0.1595588300    0.0144744400   -0.0315291600
  -0.0001529000    0.0548788000    0.0039052300
   0.4288443700    0.2475934000    0.0008625700
   0.0944712200   -0.2050711200    0.1647527400
  -0.0941049100   -0.2050848600    0.1659473000
  -0.4289520200    0.2477781300   -0.0050411700
  -0.0670691100   -0.1449080200   -0.0259906100
  -0.1303611800    0.1843500400    0.1647527400
   0.0005796000    0.0003346300  -48.1596755800
   0.1299587100    0.1846442800    0.1649522300
   0.0669666700   -0.1450764400   -0.0252862700
  -0.1799928600    0.1039862900   -0.0271373700
  -0.2246611500    0.0210452000    0.1659473000
   0.2248860000    0.0202253900    0.1649522300
   0.1799467000    0.1038922700   -0.0271647400
  -0.0002213900   -0.0131502800    0.0176897800
   0.0923146500    0.1309447700   -0.0315291600
   0.0001061100   -0.4953724100   -0.0050411700
  -0.0921565400    0.1305330700   -0.0252862700
  -0.0114991700    0.0063834100    0.0176897800
   0.0112240500    0.0064802100    0.0187356700
  -0.0004824700   -0.0002785500    0.0548177100
   0.0972599300   -0.2172443400    0.0052219300
   0.1940005000    0.2505101900    0.2576546800
  -0.1944522600    0.2505626400    0.2517930200
  -0.0966781600   -0.2177570500    0.0713727900
  -0.1395091400    0.1928517500    0.0052219300
  -0.4414598300   -0.2548769300   -0.3549637800
  -0.0004254600   -5.0757058100   -4.3480111900
   0.4418443900   -0.2552842500   -0.3598642900
   0.1395865700    0.1927563400    0.0137503600
   0.3139484400    0.0427542400    0.2576546800
  -4.3959027300    2.5374847400   -4.3480111900
   4.3960783100    2.5380768000   -4.3486424500
  -0.3139289700    0.0430216700    0.2569876200
   0.0000556100    0.0823908200   -0.0221948100
   0.1197674600   -0.2936819300    0.2517930200
  -0.0001604200    0.5102905900   -0.3598642900
  -0.1197066400   -0.2933812900    0.2569876200
  -0.0821763800   -0.0474445500   -0.0263982600
   0.0822845500   -0.0474501100   -0.0265358500
  -0.2369222200    0.0251528000    0.0713727900
   0.2367251700    0.0245073300    0.0137503600
   0.0713803400   -0.0411472500   -0.0221948100
   0.0000492800    0.0949855600   -0.0265358500
  -0.0712384700   -0.0411295500   -0.0180115200
  -0.0003827400   -0.0002209700   59.9855951200

1    
  0.0000000000000000   0.0000000000000000  -0.0100000000000000
  -0.0475199800   -0.0274356700    0.1487546400
   0.0475582300   -0.0275426300    0.0149088100
  -0.1591856600    0.0143808600   -0.0261034700
   0.0000058500   -0.2077703700   -0.0268526300
   0.1586691800    0.0142639200   -0.0205375500
  -0.0000735000    0.0549579500    0.0149088100
   0.4290027600    0.2476848400   -0.0008142400
   0.0945100000   -0.2050250300    0.1652653600
  -0.0943811300   -0.2051333300    0.1641404500
  -0.4289339300    0.2474991200    0.0051032700
  -0.0671386500   -0.1450492400   -0.0261034700
  -0.1303018700    0.1843605800    0.1652653600
   0.0000304500    0.0000175800  -48.1599632600
   0.1301680700    0.1845948300    0.1651396300
   0.0670563500   -0.1450306200   -0.0268386900
  -0.1799314900    0.1038902700   -0.0268526300
  -0.2248412400    0.0208302200    0.1641404500
   0.2249478500    0.0204314200    0.1651396300
   0.1799594500    0.1038996300   -0.0268963800
  -0.0001685100   -0.0130503200    0.0180442400
   0.0916875200    0.1302795700   -0.0205375500
  -0.0001264700   -0.4952172400    0.0051032700
  -0.0920720200    0.1305878200   -0.0268386900
  -0.0113861600    0.0063792300    0.0180442400
   0.0113414800    0.0065480100    0.0169673100
  -0.0006264000   -0.0003616500   -0.0669633200
   0.0972509300   -0.2174001700    0.0150488200
   0.1942815200    0.2506655600    0.2564239700
  -0.1938294100    0.2500116000    0.2622375100
  -0.0965256500   -0.2174025000   -0.0511243400
  -0.1396485900    0.1929218700    0.0150488200
  -0.4416260600   -0.2549729000   -0.3558672500
  -0.0002933900   -5.0755753100   -4.3492410100
   0.4416498800   -0.2548957800   -0.3508763700
   0.1395425900    0.1927827200    0.0064701700
   0.3142235000    0.0429199400    0.2564239700
  -4.3957236900    2.5375338700   -4.3492410100
   4.3958026000    2.5379176200   -4.3487285600
  -0.3139783800    0.0430218800    0.2570823000
   0.0000410900    0.0823321500   -0.0219632300
   0.1196016800   -0.2928670000    0.2622375100
   0.0000787500    0.5099279100   -0.3508763700
  -0.1197311700   -0.2934241900    0.2570823000
  -0.0821853500   -0.0474497300   -0.0265003500
   0.0822099400   -0.0474850000   -0.0263077200
  -0.2365389100    0.0251076000   -0.0511243400
   0.2367260300    0.0244560500    0.0064701700
   0.0713222800   -0.0411304900   -0.0219632300
  -0.0000182400    0.0949384000   -0.0263077200
  -0.0710434200   -0.0410169300   -0.0260673200
   0.0001612800    0.0000931200   59.9860396900

3    
  0.0100000000000000   0.0000000000000000   0.0000000000000000
  -0.0457889300   -0.0272837500    0.0094228300
   0.0952585000   -0.0237878000    0.0089974600
  -0.7897666300    0.0034044800   -0.0253834100
   0.0447133000   -0.2092617300   -0.0270210000
   0.1609653200    0.0137082100   -0.0263032200
   0.0030220400    0.0532450100    0.0093725800
   0.4197350000    0.2139047100    0.0002643400
   0.0900535700   -0.1703182200    0.1628744300
  -0.0930833700   -0.2033205800    0.1652770700
  -0.4280572500    0.2474490200    0.0000046800
  -0.0697617300   -0.1478852900   -0.0261117500
  -0.1338186400    0.1836177100    0.1654596400
   0.0011209400   -0.0056167800  -48.1614975800
   0.1304518800    0.1847436500    0.1650225200
   0.0675555400   -0.1459676000   -0.0261148000
  -0.1796750400    0.1041704900   -0.0269715100
  -0.2238456200    0.0219995100    0.1650944000
   0.2239030100    0.0216356900    0.1651805100
   0.1811042100    0.1033718500   -0.0269945800
  -0.0025552100   -0.0141736900    0.0178200800
   0.0943979700    0.1304968400   -0.0259071800
   0.0039742000   -0.4928580800    0.0000454600
  -0.1011356200    0.1590669000   -0.0258374300
  -0.0181462300   -0.0215240000    0.0178185000
   0.0157094100    0.0047569000    0.0177726900
  -0.0033029200    0.0073675100   -0.0062118900
   0.3121608400   -0.2803903100    0.0104283700
   0.4228356300    0.3210101500    0.2583012500
  -0.1959288600    0.2437054200    0.2568747200
  -0.0974984900   -0.2173524700    0.0101241300
  -0.1456943200    0.1985900900    0.0101995100
  -0.4225168800   -0.2534669900   -0.3561152400
  -0.0087747500   -5.0821227400   -4.3524446100
   0.4397559300   -0.2548722900   -0.3548436900
   0.1372305100    0.1940764400    0.0100577500
   0.3173405100    0.0430242300    0.2572735100
  -4.3918609200    2.5371184600   -4.3474430400
   4.3948226600    2.5385653200   -4.3475552600
  -0.3151444600    0.0437993600    0.2570733800
   0.0008930100    0.0824622900   -0.0221401600
   0.1192737700   -0.2933623000    0.2571588900
  -0.0008461900    0.5078433500   -0.3556961800
  -0.1143754100   -0.2903447300    0.2570193600
  -0.0757982300   -0.0513564200   -0.0263292800
   0.0830366100   -0.0455665500   -0.0264737700
  -0.2389640800    0.0240330900    0.0100798000
   0.2361851400    0.0110966900    0.0102003400
   0.1767693900   -0.0388535400   -0.0224902100
  -0.0024458500    0.1047575300   -0.0264099000
  -0.0739683100   -0.0406428700   -0.0220699100
   0.0004850700    0.0073078200   59.9891474200

3    
 -0.0100000000000000   0.0000000000000000   0.0000000000000000
  -0.0492750400   -0.0282705200    0.0092593700
  -0.0016637100   -0.0317305700    0.0098931900
   0.4714848700    0.0083264700   -0.0266820300
  -0.0433376800   -0.2066329000   -0.0270057100
   0.1575424200    0.0145384900   -0.0257945400
  -0.0032737400    0.0570593700    0.0093685600
   0.4380762000    0.2817366800   -0.0001752700
   0.0993112500   -0.2396838200    0.1670413700
  -0.0948317000   -0.2069876200    0.1648563800
  -0.4298711500    0.2479804800    0.0000700600
  -0.0645730200   -0.1421003400   -0.0259925000
  -0.1271605800    0.1843233700    0.1647766200
   0.0003139700    0.0055717000  -48.1604946600
   0.1300926200    0.1844490800    0.1651726100
   0.0665120900   -0.1442744100   -0.0260511800
  -0.1804633200    0.1037029900   -0.0269523800
  -0.2255582900    0.0204478300    0.1650183600
   0.2259341600    0.0181275600    0.1649724400
   0.1791396600    0.1042393400   -0.0270334800
   0.0021212200   -0.0119650800    0.0178449300
   0.0896579800    0.1309492500   -0.0262404300
  -0.0039293900   -0.4972545900   -0.0000259500
  -0.0827266900    0.1020064400   -0.0262245500
  -0.0051724300    0.0340658900    0.0179441700
   0.0066565600    0.0082529300    0.0178540300
   0.0032564700   -0.0076575700   -0.0059585500
  -0.1290437200   -0.1464482600    0.0099361500
  -0.0232769700    0.1885803100    0.2557142500
  -0.1923726300    0.2570550700    0.2571151900
  -0.0969649700   -0.2171613800    0.0100914500
  -0.1339655100    0.1870712800    0.0100443400
  -0.4606125500   -0.2558713500   -0.3546493300
   0.0075343600   -5.0695493900   -4.3447859000
   0.4436450500   -0.2556353600   -0.3557978300
   0.1420636100    0.1912592500    0.0101014700
   0.3108340600    0.0429373700    0.2568729000
  -4.3994548000    2.5376843300   -4.3494441300
   4.3966932600    2.5383399300   -4.3495818500
  -0.3129650500    0.0424213200    0.2570181900
  -0.0007827300    0.0825916800   -0.0220046500
   0.1199736200   -0.2932271300    0.2567630000
   0.0005099700    0.5121750800   -0.3549877600
  -0.1250752500   -0.2963513500    0.2570981400
  -0.0884805500   -0.0437261600   -0.0265955400
   0.0814499400   -0.0493266600   -0.0263629700
  -0.2346057500    0.0254300100    0.0100937200
   0.2370880500    0.0380396400    0.0100734300
  -0.0341062000   -0.0424746800   -0.0216301200
   0.0030223300    0.0850203600   -0.0264702900
  -0.0684477000   -0.0412768400   -0.0220574400
  -0.0009226200   -0.0067775000   59.9840047100

3    
  0.0050000005764643   0.0086602537050225   0.0000000000000000
  -0.0470954600   -0.0294337000    0.0093797600
   0.0673337400   -0.0483133700    0.0093133700
  -0.4838799800   -0.5312552600   -0.0259908800
   0.0234904300   -0.2298622900   -0.0270956500
   0.1604870000    0.0118276400   -0.0262637800
  -0.0009826000    0.0570799500    0.0094148500
   0.3995335300    0.2546207500   -0.0001626200
   0.1141752600   -0.1612154000    0.1646327900
  -0.0945438400   -0.2018452100    0.1654526100
  -0.4296429100    0.2481351700   -0.0000205900
  -0.0705286200   -0.1460979800   -0.0262155400
  -0.1328900100    0.1905897500    0.1654651200
   0.0016096200   -0.0015757100  -48.1616006100
   0.1322110700    0.1852704700    0.1651319800
   0.0667564500   -0.1437501800   -0.0261781100
  -0.1805036400    0.1065583100   -0.0270205500
  -0.2236170300    0.0229367600    0.1649345300
   0.2254179100    0.0202580600    0.1650703400
   0.1803621100    0.1087446800   -0.0269772800
  -0.0036790900   -0.0120683900    0.0178218300
   0.0928830700    0.1307942500   -0.0258706900
   0.0033685200   -0.4915628500    0.0000374300
  -0.0677940900    0.1675053300   -0.0258436700
  -0.0448253700    0.0186397600    0.0178064200
   0.0114398100    0.0077582000    0.0178556300
   0.0057297100    0.0021950600   -0.0061682100
   0.1514063800   -0.1253172000    0.0102223100
   0.3724786800    0.4106571900    0.2575374000
  -0.2014032600    0.2471069800    0.2571091300
  -0.0971679700   -0.2172400600    0.0101233100
  -0.1389640100    0.1998242000    0.0102256900
  -0.4304818300   -0.2630548900   -0.3551967800
  -0.0055942500   -5.0744242800   -4.3493659900
   0.4417284500   -0.2555802100   -0.3549482100
   0.1405777000    0.1910316600    0.0100978500
   0.3187776800    0.0405037000    0.2573560200
  -4.3958873200    2.5359223200   -4.3492474200
   4.3946435500    2.5396607000   -4.3478237800
  -0.3151113200    0.0391616900    0.2570284300
   0.0008402100    0.0817213000   -0.0222316500
   0.1189036400   -0.2932169200    0.2570913100
  -0.0017681100    0.5075310700   -0.3557109600
  -0.1140623800   -0.2973264700    0.2569562000
  -0.0806198900   -0.0582365200   -0.0261405500
   0.0842397700   -0.0478933700   -0.0264258800
  -0.2381943900    0.0252537400    0.0100689300
   0.2260839900    0.0284548500    0.0102992300
   0.1253955600    0.1796362800   -0.0223587600
   0.0095058200    0.1092800400   -0.0266407500
  -0.0716329500   -0.0399504800   -0.0220921300
   0.0014906800    0.0005608700   59.9871585700

3    
 -0.0050000005764643  -0.0086602537050225   0.0000000000000000
  -0.0479300300   -0.0260843400    0.0093040000
   0.0274771100   -0.0068426700    0.0095804100
   0.1511052700    0.5681522900   -0.0260626600
  -0.0228884300   -0.1860822800   -0.0269246600
   0.1580428300    0.0163959900   -0.0258328000
   0.0008419200    0.0531023600    0.0093250700
   0.4580206900    0.2404945200    0.0002494100
   0.0755389300   -0.2481127800    0.1652864500
  -0.0933681000   -0.2084243900    0.1646892300
  -0.4282745000    0.2472908700    0.0000986900
  -0.0638132600   -0.1439547800   -0.0258862900
  -0.1281271600    0.1772877300    0.1647742100
  -0.0000894600    0.0016087100  -48.1604111700
   0.1282585200    0.1839321900    0.1650510800
   0.0673566300   -0.1465748300   -0.0259835200
  -0.1796011200    0.1012821100   -0.0269072300
  -0.2257919100    0.0194818600    0.1651709000
   0.2243941500    0.0194870500    0.1650809100
   0.1798419600    0.0986602700   -0.0270523200
   0.0032982000   -0.0141104100    0.0178409300
   0.0912118600    0.1306474900   -0.0262717300
  -0.0033073900   -0.4986391300   -0.0000220200
  -0.1169837700    0.0928082300   -0.0262229900
   0.0220808100   -0.0062361800    0.0179585600
   0.0110179600    0.0051919800    0.0177698800
  -0.0059046800   -0.0022896100   -0.0060016800
   0.0440643900   -0.3098450100    0.0101314800
   0.0281193900    0.0970280600    0.2564639000
  -0.1870372200    0.2536630100    0.2568873700
  -0.0973070300   -0.2172832100    0.0100931600
  -0.1408220300    0.1859574400    0.0100149700
  -0.4523742300   -0.2459893400   -0.3555725400
   0.0044220000   -5.0771394700   -4.3478066900
   0.4416308600   -0.2549228300   -0.3556994200
   0.1386445400    0.1943939100    0.0100623000
   0.3094183100    0.0454855600    0.2567849600
  -4.3954064200    2.5389143100   -4.3476149400
   4.3969476900    2.5372448700   -4.3493674300
  -0.3130126700    0.0472311500    0.2570695700
  -0.0007028700    0.0833412200   -0.0219085200
   0.1203327400   -0.2933988900    0.2568330300
   0.0014167800    0.5125263300   -0.3549752200
  -0.1254538500   -0.2892615500    0.2571587200
  -0.0836330100   -0.0365795600   -0.0267850000
   0.0802360600   -0.0469739900   -0.0264151300
  -0.2353962300    0.0241780900    0.0101075200
   0.2474081900    0.0203078000    0.0099722500
   0.0182951400   -0.2757830600   -0.0217554000
  -0.0093244200    0.0805132300   -0.0262399100
  -0.0708359100   -0.0419557400   -0.0220325400
  -0.0020372500   -0.0001245700   59.9859928700

3    
  0.0000000000000000   0.0000000000000000   0.0100000000000000
  -0.0476862200   -0.0277182000    0.0093985800
   0.0473626100   -0.0275107400    0.0038957400
  -0.1584096700    0.0139609800   -0.1663210600
  -0.0005565000   -0.2070950000   -0.0316862700
   0.1593773500    0.0141324800   -0.0263408600
  -0.0002364700    0.0550591200    0.0101334500
   0.4287225400    0.2475185800   -0.0048683600
   0.0952406100   -0.2052557700    0.1590655800
  -0.0953815800   -0.2051314900    0.1658359800
  -0.4291628400    0.2477971000   -0.0001703600
  -0.0672915300   -0.1449344100   -0.0262562400
  -0.1305223500    0.1843845300    0.1658139100
   0.0006209100   -0.0011847300  -48.1581410300
   0.1300350500    0.1842437700    0.1648864800
   0.0667969600   -0.1449752900   -0.0262035100
  -0.1799782800    0.1038878000   -0.0271481200
  -0.2248971800    0.0206799000    0.1647830300
   0.2249791000    0.0201557400    0.1648481500
   0.1801377200    0.1036969600   -0.0262549900
  -0.0004207000   -0.0128721300    0.0177565800
   0.0919028400    0.1307132400   -0.0262023000
   0.0001086400   -0.4951163700    0.0008178800
  -0.0920240200    0.1302467400   -0.0307361200
  -0.0112997900    0.0068854000    0.0123529600
   0.0111418300    0.0063637400    0.0185967400
   0.0000661600   -0.0000555200   -0.0110083200
   0.0975669700   -0.2173503300    0.0719938800
   0.1933344500    0.2495262600    0.3175975100
  -0.1942912600    0.2505566700    0.2520458500
  -0.0973251900   -0.2174471500    0.0107243900
  -0.1395267000    0.1928997300    0.0054709500
  -0.4413062100   -0.2549847200   -0.3519672800
  -0.0001344000   -5.0755949300   -4.3542110500
   0.4424482600   -0.2546535400   -0.3549155200
   0.1396935500    0.1927115700    0.0104876300
   0.3140628600    0.0429844500    0.2568664600
  -4.3958547500    2.5380165900   -4.3488849700
   4.3958142800    2.5385434900   -4.3481697400
  -0.3136526000    0.0431779700    0.2575097700
   0.0001997500    0.0821993500   -0.0215297300
   0.1195818100   -0.2932775200    0.2570663300
  -0.0000323000    0.5100989200   -0.3554726600
  -0.1198499900   -0.2930420300    0.2522248600
  -0.0820835500   -0.0479541700   -0.0313572900
   0.0823542000   -0.0472364300   -0.0265164200
  -0.2367530500    0.0246537000    0.0099494800
   0.2366464000    0.0243092300    0.0137522800
   0.0709551000   -0.0406292400    0.0384727100
  -0.0000676500    0.0942515700   -0.0225377100
  -0.0710236900   -0.0409023800   -0.0222471300
   0.0006185000    0.0012665300   59.9867999000

3    
  0.0000000000000000   0.0000000000000000  -0.0100000000000000
  -0.0475626300   -0.0276232000    0.0092644700
   0.0474477300   -0.0276814300    0.0149142000
  -0.1597226700    0.0146207900    0.1142060100
   0.0007497900   -0.2083166400   -0.0224271500
   0.1588657300    0.0143433700   -0.0257865700
   0.0000229100    0.0550079000    0.0085672100
   0.4291036600    0.2477944700    0.0048921500
   0.0944479100   -0.2049593100    0.1705651500
  -0.0937121200   -0.2050407700    0.1639922100
  -0.4287990800    0.2475126600    0.0001991700
  -0.0669568600   -0.1449802600   -0.0258697800
  -0.1299345000    0.1842470600    0.1640894700
  -0.0004472300    0.0012685500  -48.1567276300
   0.1303617200    0.1849914100    0.1650773500
   0.0671908900   -0.1451272000   -0.0259647800
  -0.1798902100    0.1038354700   -0.0268919700
  -0.2248201100    0.0204664100    0.1650160700
   0.2249197700    0.0201047600    0.1650120500
   0.1797035900    0.1038137600   -0.0278415300
   0.0001185900   -0.0131455700    0.0178708000
   0.0920330700    0.1305562300   -0.0259594600
  -0.0001037400   -0.4952068200   -0.0008543600
  -0.0920426100    0.1306768100   -0.0213538500
  -0.0115727000    0.0057980400    0.0233569100
   0.0111964300    0.0065860300    0.0170367300
  -0.0000959300   -0.0000490000   -0.0011794700
   0.0981591100   -0.2178519300   -0.0517477800
   0.1936581500    0.2508303500    0.1963951900
  -0.1938871800    0.2498592500    0.2619568100
  -0.0971261300   -0.2170643500    0.0094383700
  -0.1398411700    0.1929082500    0.0147054400
  -0.4421748500   -0.2546358700   -0.3588960900
  -0.0004260400   -5.0768810800   -4.3436695800
   0.4413536800   -0.2555240600   -0.3559112600
   0.1394459300    0.1929185300    0.0096367800
   0.3136557000    0.0430938800    0.2572512100
  -4.3964484800    2.5380295600   -4.3493198100
   4.3963032500    2.5383437100   -4.3494459000
  -0.3140774800    0.0430495100    0.2565487500
  -0.0001428900    0.0823912100   -0.0226498000
   0.1195004100   -0.2930829400    0.2569109600
   0.0001560500    0.5101349300   -0.3553490700
  -0.1194762700   -0.2935043000    0.2618196700
  -0.0821566600   -0.0469657100   -0.0216010300
   0.0820146800   -0.0475568300   -0.0263966100
  -0.2367548000    0.0245342800    0.0101809400
   0.2367725800    0.0245330000    0.0064585500
   0.0715196200   -0.0402242100   -0.0826289100
   0.0003338400    0.0953333600   -0.0303819100
  -0.0711539300   -0.0410477200   -0.0219382400
   0.0002914700   -0.0011143600   59.9854299400

4    
  0.0050000005764643   0.0086602537050225   0.0000000000000000
  -0.0459067700   -0.0296547100    0.0093234200
   0.0476332700   -0.0303063700    0.0093895500
  -0.1382467200   -0.0061729100   -0.0258346300
  -0.3213261200   -0.7547926700   -0.0268030800
   0.1824955400   -0.0078962100   -0.0251949000
   0.0005542000    0.0561493400    0.0093791600
   0.4299213100    0.2486729800    0.0000428500
   0.0688755800   -0.1964452700    0.1637208200
  -0.0779641600   -0.1596466700    0.1617104400
  -0.4273243000    0.2510368000    0.0001656700
  -0.0676057500   -0.1443213900   -0.0260909800
  -0.1328536700    0.1825364600    0.1654592200
   0.0017138000   -0.0136640800  -48.1578956600
   0.1343940200    0.1849508000    0.1654831900
   0.0695601100   -0.1437016700   -0.0261219100
  -0.1824971100    0.1040472900   -0.0269968800
  -0.2240204700    0.0233435300    0.1655433200
   0.2260901700    0.0213446200    0.1654100500
   0.1814130200    0.1047946000   -0.0270483800
   0.0011387300   -0.0079020400    0.0178600500
   0.0927507000    0.1314158100   -0.0262815700
   0.0003746800   -0.4948077100    0.0000714800
  -0.0876780500    0.1332165700   -0.0260805900
   0.0139107700    0.0447139100    0.0178841000
  -0.0211457300    0.0179601600    0.0179533700
  -0.0006876500   -0.0004076600   -0.0060768900
   0.1030156900   -0.2137622600    0.0101492300
   0.2461919400    0.3409826300    0.2564324400
  -0.0175838900    0.4075815700    0.2577100400
  -0.1047759500   -0.2203806200    0.0099168000
  -0.1408774500    0.1918416900    0.0101000400
  -0.4421913100   -0.2479191400   -0.3551924500
   0.0122587500   -5.0888153800   -4.3585442100
   0.4360311600   -0.2530288600   -0.3566696900
   0.1383166000    0.1913450000    0.0102076900
   0.3148021600    0.0432500200    0.2568566900
  -4.3913586400    2.5361132700   -4.3433663600
   4.3920536600    2.5369245600   -4.3461548900
  -0.3160875400    0.0430547600    0.2572283400
  -0.0014363700    0.0784944800   -0.0220468700
   0.1208945500   -0.2931000300    0.2566905400
  -0.0007418400    0.5103227600   -0.3555400800
  -0.1212353000   -0.2953762100    0.2570949100
  -0.0777109600   -0.0528605400   -0.0264756300
   0.0827332300   -0.0571778900   -0.0264193700
  -0.2369901500    0.0253803900    0.0100949400
   0.2347048900    0.0260517300    0.0101490700
   0.0595825900   -0.0369764700   -0.0219716600
   0.0533957500    0.3150294700   -0.0266317200
  -0.0620185300   -0.0260278100   -0.0217247000
  -0.0045424300    0.0245894000   59.9891356600

4    
 -0.0050000005764643  -0.0086602537050225   0.0000000000000000
  -0.0491173300   -0.0259126400    0.0093596600
   0.0470654000   -0.0251332000    0.0095005000
  -0.1800794600    0.0348431000   -0.0262431200
   0.3072507200    0.3475726700   -0.0272085300
   0.1363360200    0.0360181900   -0.0269004100
  -0.0007273600    0.0540798100    0.0093614100
   0.4279032200    0.2466255900    0.0000487100
   0.1201045800   -0.2141248000    0.1662394000
  -0.1096108500   -0.2496151100    0.1683935200
  -0.4305934800    0.2444801500   -0.0000885600
  -0.0666743300   -0.1457385600   -0.0260106800
  -0.1280728300    0.1853906200    0.1647693300
  -0.0002982200    0.0137776000  -48.1639851800
   0.1261721700    0.1842513500    0.1647109100
   0.0645320700   -0.1465872000   -0.0260431900
  -0.1775811200    0.1037994100   -0.0269232400
  -0.2253931400    0.0190145600    0.1645570800
   0.2237394100    0.0184018600    0.1647333300
   0.1787711200    0.1027184100   -0.0269825200
  -0.0015477400   -0.0183185100    0.0178026300
   0.0913513300    0.1300046600   -0.0258641300
  -0.0003517800   -0.4953831800   -0.0000543900
  -0.0964030900    0.1279516100   -0.0259726200
  -0.0375021200   -0.0330182200    0.0178763600
   0.0437636200   -0.0051871100    0.0176734700
   0.0006146300    0.0002513800   -0.0060937500
   0.0915749700   -0.2209040800    0.0102015500
   0.1427367800    0.1603320900    0.2575367500
  -0.3582838600    0.0991849600    0.2562770800
  -0.0898182600   -0.2142328200    0.0102961600
  -0.1388499000    0.1938861100    0.0101328600
  -0.4409610800   -0.2612416000   -0.3555332500
  -0.0129826300   -5.0626487000   -4.3385664000
   0.4473733300   -0.2574168300   -0.3539935000
   0.1408972000    0.1940498600    0.0099540500
   0.3133521200    0.0427353400    0.2572839700
  -4.4000116700    2.5387739400   -4.3535721100
   4.3994990300    2.5399687600   -4.3510522900
  -0.3120460800    0.0432131400    0.2568615400
   0.0015066500    0.0866178500   -0.0220927700
   0.1183296200   -0.2934741200    0.2572354900
   0.0004168000    0.5097347200   -0.3551458000
  -0.1181949800   -0.2912462700    0.2570314200
  -0.0866202500   -0.0420190200   -0.0264530500
   0.0817330500   -0.0375854200   -0.0264200900
  -0.2366045100    0.0240903100    0.0100764800