phonopy:
  version: "2.19.1"
  frequency_unit_conversion_factor: 15.633302
  symmetry_tolerance: 1.00000e-05
  configuration:
    atom_name: "C"
    dim: "1 1 1"
    band: "2.5 2.5 0  0 0 0  5/3 10/3 0  2.5 2.5 0"
    band_points: "101"
    band_labels: "M G K M"
    force_constants: "WRITE"
    fc_symmetry: ".TRUE."
    eigenvectors: ".TRUE."

physical_unit:
  atomic_mass: "AMU"
  length: "angstrom"
  force_constants: "eV/angstrom^2"

space_group:
  type: "P3m1"
  number: 156
  Hall_symbol: "P 3 -2\""

supercell_matrix:
- [   1,   0,   0 ]
- [   0,   1,   0 ]
- [   0,   0,   1 ]

primitive_cell:
  lattice:
  - [    12.300000190500000,     0.000000000000000,     0.000000000000000 ] # a
  - [     6.150000804499999,    10.652112222500001,     0.000000000000000 ] # b
  - [     0.000000000000000,     0.000000000000000,    20.000000000000000 ] # c
  points:
  - symbol: C  # 1
    coordinates: [  0.000000000000000,  0.000000000000000,  0.417997479000000 ]
    mass: 12.010700
  - symbol: C  # 2
    coordinates: [  0.200000000000003,  0.000000000000000,  0.417997479000000 ]
    mass: 12.010700
  - symbol: C  # 3
    coordinates: [  0.399999999999999,  0.000000000000000,  0.417997479000000 ]
    mass: 12.010700
  - symbol: C  # 4
    coordinates: [  0.600000000000001,  0.000000000000000,  0.417997479000000 ]
    mass: 12.010700
  - symbol: C  # 5
    coordinates: [  0.799999999999997,  0.000000000000000,  0.417997479000000 ]
    mass: 12.010700
  - symbol: C  # 6
    coordinates: [  0.000000000000000,  0.200000000000003,  0.417997479000000 ]
    mass: 12.010700
  - symbol: C  # 7
    coordinates: [  0.200000000000003,  0.200000000000003,  0.417997479000000 ]
    mass: 12.010700
  - symbol: C  # 8
    coordinates: [  0.399999999999999,  0.200000000000003,  0.417997479000000 ]
    mass: 12.010700
  - symbol: C  # 9
    coordinates: [  0.600000000000001,  0.200000000000003,  0.417997479000000 ]
    mass: 12.010700
  - symbol: C  # 10
    coordinates: [  0.799999999999997,  0.200000000000003,  0.417997479000000 ]
    mass: 12.010700
  - symbol: C  # 11
    coordinates: [  0.000000000000000,  0.399999999999999,  0.417997479000000 ]
    mass: 12.010700
  - symbol: C  # 12
    coordinates: [  0.200000000000003,  0.399999999999999,  0.417997479000000 ]
    mass: 12.010700
  - symbol: C  # 13
    coordinates: [  0.399999999999999,  0.399999999999999,  0.417997479000000 ]
    mass: 12.010700
  - symbol: C  # 14
    coordinates: [  0.600000000000001,  0.399999999999999,  0.417997479000000 ]
    mass: 12.010700
  - symbol: C  # 15
    coordinates: [  0.799999999999997,  0.399999999999999,  0.417997479000000 ]
    mass: 12.010700
  - symbol: C  # 16
    coordinates: [  0.000000000000000,  0.600000000000001,  0.417997479000000 ]
    mass: 12.010700
  - symbol: C  # 17
    coordinates: [  0.200000000000003,  0.600000000000001,  0.417997479000000 ]
    mass: 12.010700
  - symbol: C  # 18
    coordinates: [  0.399999999999999,  0.600000000000001,  0.417997479000000 ]
    mass: 12.010700
  - symbol: C  # 19
    coordinates: [  0.600000000000001,  0.600000000000001,  0.417997479000000 ]
    mass: 12.010700
  - symbol: C  # 20
    coordinates: [  0.799999999999997,  0.600000000000001,  0.417997479000000 ]
    mass: 12.010700
  - symbol: C  # 21
    coordinates: [  0.000000000000000,  0.799999999999997,  0.417997479000000 ]
    mass: 12.010700
  - symbol: C  # 22
    coordinates: [  0.200000000000003,  0.799999999999997,  0.417997479000000 ]
    mass: 12.010700
  - symbol: C  # 23
    coordinates: [  0.399999999999999,  0.799999999999997,  0.417997479000000 ]
    mass: 12.010700
  - symbol: C  # 24
    coordinates: [  0.600000000000001,  0.799999999999997,  0.417997479000000 ]
    mass: 12.010700
  - symbol: C  # 25
    coordinates: [  0.799999999999997,  0.799999999999997,  0.417997479000000 ]
    mass: 12.010700
  - symbol: C  # 26
    coordinates: [  0.066666668600000,  0.066666603000002,  0.418006091999999 ]
    mass: 12.010700
  - symbol: C  # 27
    coordinates: [  0.266666668600003,  0.066666603000002,  0.418006091999999 ]
    mass: 12.010700
  - symbol: C  # 28
    coordinates: [  0.466666668599999,  0.066666603000002,  0.418006091999999 ]
    mass: 12.010700
  - symbol: C  # 29
    coordinates: [  0.666666668600001,  0.066666603000002,  0.418006091999999 ]
    mass: 12.010700
  - symbol: C  # 30
    coordinates: [  0.866666668599997,  0.066666603000002,  0.418006091999999 ]
    mass: 12.010700
  - symbol: C  # 31
    coordinates: [  0.066666668600000,  0.266666602999997,  0.418006091999999 ]
    mass: 12.010700
  - symbol: C  # 32
    coordinates: [  0.266666668600003,  0.266666602999997,  0.418006091999999 ]
    mass: 12.010700
  - symbol: C  # 33
    coordinates: [  0.466666668599999,  0.266666602999997,  0.418006091999999 ]
    mass: 12.010700
  - symbol: C  # 34
    coordinates: [  0.666666668600001,  0.266666602999997,  0.418006091999999 ]
    mass: 12.010700
  - symbol: C  # 35
    coordinates: [  0.866666668599997,  0.266666602999997,  0.418006091999999 ]
    mass: 12.010700
  - symbol: C  # 36
    coordinates: [  0.066666668600000,  0.466666603000000,  0.418006091999999 ]
    mass: 12.010700
  - symbol: C  # 37
    coordinates: [  0.266666668600003,  0.466666603000000,  0.418006091999999 ]
    mass: 12.010700
  - symbol: C  # 38
    coordinates: [  0.466666668599999,  0.466666603000000,  0.418006091999999 ]
    mass: 12.010700
  - symbol: C  # 39
    coordinates: [  0.666666668600001,  0.466666603000000,  0.418006091999999 ]
    mass: 12.010700
  - symbol: C  # 40
    coordinates: [  0.866666668599997,  0.466666603000000,  0.418006091999999 ]
    mass: 12.010700
  - symbol: C  # 41
    coordinates: [  0.066666668600000,  0.666666603000003,  0.418006091999999 ]
    mass: 12.010700
  - symbol: C  # 42
    coordinates: [  0.266666668600003,  0.666666603000003,  0.418006091999999 ]
    mass: 12.010700
  - symbol: C  # 43
    coordinates: [  0.466666668599999,  0.666666603000003,  0.418006091999999 ]
    mass: 12.010700
  - symbol: C  # 44
    coordinates: [  0.666666668600001,  0.666666603000003,  0.418006091999999 ]
    mass: 12.010700
  - symbol: C  # 45
    coordinates: [  0.866666668599997,  0.666666603000003,  0.418006091999999 ]
    mass: 12.010700
  - symbol: C  # 46
    coordinates: [  0.066666668600000,  0.866666602999999,  0.418006091999999 ]
    mass: 12.010700
  - symbol: C  # 47
    coordinates: [  0.266666668600003,  0.866666602999999,  0.418006091999999 ]
    mass: 12.010700
  - symbol: C  # 48
    coordinates: [  0.466666668599999,  0.866666602999999,  0.418006091999999 ]
    mass: 12.010700
  - symbol: C  # 49
    coordinates: [  0.666666668600001,  0.866666602999999,  0.418006091999999 ]
    mass: 12.010700
  - symbol: C  # 50
    coordinates: [  0.866666668599997,  0.866666602999999,  0.418006091999999 ]
    mass: 12.010700
  - symbol: O  # 51
    coordinates: [  0.399999999999999,  0.399999999999999,  0.468006091999999 ]
    mass: 15.999400
  reciprocal_lattice: # without 2pi
  - [     0.081300811748959,    -0.046939052764246,     0.000000000000000 ] # a*
  - [     0.000000000000000,     0.093878094701982,     0.000000000000000 ] # b*
  - [     0.000000000000000,     0.000000000000000,     0.050000000000000 ] # c*

unit_cell:
  lattice:
  - [    12.300000190500000,     0.000000000000000,     0.000000000000000 ] # a
  - [     6.150000804499999,    10.652112222500001,     0.000000000000000 ] # b
  - [     0.000000000000000,     0.000000000000000,    20.000000000000000 ] # c
  points:
  - symbol: C  # 1
    coordinates: [  0.000000000000000,  0.000000000000000,  0.417997479000000 ]
    mass: 12.010700
    reduced_to: 1
  - symbol: C  # 2
    coordinates: [  0.200000000000003,  0.000000000000000,  0.417997479000000 ]
    mass: 12.010700
    reduced_to: 2
  - symbol: C  # 3
    coordinates: [  0.399999999999999,  0.000000000000000,  0.417997479000000 ]
    mass: 12.010700
    reduced_to: 3
  - symbol: C  # 4
    coordinates: [  0.600000000000001,  0.000000000000000,  0.417997479000000 ]
    mass: 12.010700
    reduced_to: 4
  - symbol: C  # 5
    coordinates: [  0.799999999999997,  0.000000000000000,  0.417997479000000 ]
    mass: 12.010700
    reduced_to: 5
  - symbol: C  # 6
    coordinates: [  0.000000000000000,  0.200000000000003,  0.417997479000000 ]
    mass: 12.010700
    reduced_to: 6
  - symbol: C  # 7
    coordinates: [  0.200000000000003,  0.200000000000003,  0.417997479000000 ]
    mass: 12.010700
    reduced_to: 7
  - symbol: C  # 8
    coordinates: [  0.399999999999999,  0.200000000000003,  0.417997479000000 ]
    mass: 12.010700
    reduced_to: 8
  - symbol: C  # 9
    coordinates: [  0.600000000000001,  0.200000000000003,  0.417997479000000 ]
    mass: 12.010700
    reduced_to: 9
  - symbol: C  # 10
    coordinates: [  0.799999999999997,  0.200000000000003,  0.417997479000000 ]
    mass: 12.010700
    reduced_to: 10
  - symbol: C  # 11
    coordinates: [  0.000000000000000,  0.399999999999999,  0.417997479000000 ]
    mass: 12.010700
    reduced_to: 11
  - symbol: C  # 12
    coordinates: [  0.200000000000003,  0.399999999999999,  0.417997479000000 ]
    mass: 12.010700
    reduced_to: 12
  - symbol: C  # 13
    coordinates: [  0.399999999999999,  0.399999999999999,  0.417997479000000 ]
    mass: 12.010700
    reduced_to: 13
  - symbol: C  # 14
    coordinates: [  0.600000000000001,  0.399999999999999,  0.417997479000000 ]
    mass: 12.010700
    reduced_to: 14
  - symbol: C  # 15
    coordinates: [  0.799999999999997,  0.399999999999999,  0.417997479000000 ]
    mass: 12.010700
    reduced_to: 15
  - symbol: C  # 16
    coordinates: [  0.000000000000000,  0.600000000000001,  0.417997479000000 ]
    mass: 12.010700
    reduced_to: 16
  - symbol: C  # 17
    coordinates: [  0.200000000000003,  0.600000000000001,  0.417997479000000 ]
    mass: 12.010700
    reduced_to: 17
  - symbol: C  # 18
    coordinates: [  0.399999999999999,  0.600000000000001,  0.417997479000000 ]
    mass: 12.010700
    reduced_to: 18
  - symbol: C  # 19
    coordinates: [  0.600000000000001,  0.600000000000001,  0.417997479000000 ]
    mass: 12.010700
    reduced_to: 19
  - symbol: C  # 20
    coordinates: [  0.799999999999997,  0.600000000000001,  0.417997479000000 ]
    mass: 12.010700
    reduced_to: 20
  - symbol: C  # 21
    coordinates: [  0.000000000000000,  0.799999999999997,  0.417997479000000 ]
    mass: 12.010700
    reduced_to: 21
  - symbol: C  # 22
    coordinates: [  0.200000000000003,  0.799999999999997,  0.417997479000000 ]
    mass: 12.010700
    reduced_to: 22
  - symbol: C  # 23
    coordinates: [  0.399999999999999,  0.799999999999997,  0.417997479000000 ]
    mass: 12.010700
    reduced_to: 23
  - symbol: C  # 24
    coordinates: [  0.600000000000001,  0.799999999999997,  0.417997479000000 ]
    mass: 12.010700
    reduced_to: 24
  - symbol: C  # 25
    coordinates: [  0.799999999999997,  0.799999999999997,  0.417997479000000 ]
    mass: 12.010700
    reduced_to: 25
  - symbol: C  # 26
    coordinates: [  0.066666668600000,  0.066666603000002,  0.418006091999999 ]
    mass: 12.010700
    reduced_to: 26
  - symbol: C  # 27
    coordinates: [  0.266666668600003,  0.066666603000002,  0.418006091999999 ]
    mass: 12.010700
    reduced_to: 27
  - symbol: C  # 28
    coordinates: [  0.466666668599999,  0.066666603000002,  0.418006091999999 ]
    mass: 12.010700
    reduced_to: 28
  - symbol: C  # 29
    coordinates: [  0.666666668600001,  0.066666603000002,  0.418006091999999 ]
    mass: 12.010700
    reduced_to: 29
  - symbol: C  # 30
    coordinates: [  0.866666668599997,  0.066666603000002,  0.418006091999999 ]
    mass: 12.010700
    reduced_to: 30
  - symbol: C  # 31
    coordinates: [  0.066666668600000,  0.266666602999997,  0.418006091999999 ]
    mass: 12.010700
    reduced_to: 31
  - symbol: C  # 32
    coordinates: [  0.266666668600003,  0.266666602999997,  0.418006091999999 ]
    mass: 12.010700
    reduced_to: 32
  - symbol: C  # 33
    coordinates: [  0.466666668599999,  0.266666602999997,  0.418006091999999 ]
    mass: 12.010700
    reduced_to: 33
  - symbol: C  # 34
    coordinates: [  0.666666668600001,  0.266666602999997,  0.418006091999999 ]
    mass: 12.010700
    reduced_to: 34
  - symbol: C  # 35
    coordinates: [  0.866666668599997,  0.266666602999997,  0.418006091999999 ]
    mass: 12.010700
    reduced_to: 35
  - symbol: C  # 36
    coordinates: [  0.066666668600000,  0.466666603000000,  0.418006091999999 ]
    mass: 12.010700
    reduced_to: 36
  - symbol: C  # 37
    coordinates: [  0.266666668600003,  0.466666603000000,  0.418006091999999 ]
    mass: 12.010700
    reduced_to: 37
  - symbol: C  # 38
    coordinates: [  0.466666668599999,  0.466666603000000,  0.418006091999999 ]
    mass: 12.010700
    reduced_to: 38
  - symbol: C  # 39
    coordinates: [  0.666666668600001,  0.466666603000000,  0.418006091999999 ]
    mass: 12.010700
    reduced_to: 39
  - symbol: C  # 40
    coordinates: [  0.866666668599997,  0.466666603000000,  0.418006091999999 ]
    mass: 12.010700
    reduced_to: 40
  - symbol: C  # 41
    coordinates: [  0.066666668600000,  0.666666603000003,  0.418006091999999 ]
    mass: 12.010700
    reduced_to: 41
  - symbol: C  # 42
    coordinates: [  0.266666668600003,  0.666666603000003,  0.418006091999999 ]
    mass: 12.010700
    reduced_to: 42
  - symbol: C  # 43
    coordinates: [  0.466666668599999,  0.666666603000003,  0.418006091999999 ]
    mass: 12.010700
    reduced_to: 43
  - symbol: C  # 44
    coordinates: [  0.666666668600001,  0.666666603000003,  0.418006091999999 ]
    mass: 12.010700
    reduced_to: 44
  - symbol: C  # 45
    coordinates: [  0.866666668599997,  0.666666603000003,  0.418006091999999 ]
    mass: 12.010700
    reduced_to: 45
  - symbol: C  # 46
    coordinates: [  0.066666668600000,  0.866666602999999,  0.418006091999999 ]
    mass: 12.010700
    reduced_to: 46
  - symbol: C  # 47
    coordinates: [  0.266666668600003,  0.866666602999999,  0.418006091999999 ]
    mass: 12.010700
    reduced_to: 47
  - symbol: C  # 48
    coordinates: [  0.466666668599999,  0.866666602999999,  0.418006091999999 ]
    mass: 12.010700
    reduced_to: 48
  - symbol: C  # 49
    coordinates: [  0.666666668600001,  0.866666602999999,  0.418006091999999 ]
    mass: 12.010700
    reduced_to: 49
  - symbol: C  # 50
    coordinates: [  0.866666668599997,  0.866666602999999,  0.418006091999999 ]
    mass: 12.010700
    reduced_to: 50
  - symbol: O  # 51
    coordinates: [  0.399999999999999,  0.399999999999999,  0.468006091999999 ]
    mass: 15.999400
    reduced_to: 51

supercell:
  lattice:
  - [    12.300000190500000,     0.000000000000000,     0.000000000000000 ] # a
  - [     6.150000804499999,    10.652112222500001,     0.000000000000000 ] # b
  - [     0.000000000000000,     0.000000000000000,    20.000000000000000 ] # c
  points:
  - symbol: C  # 1
    coordinates: [  0.000000000000000,  0.000000000000000,  0.417997479000000 ]
    mass: 12.010700
    reduced_to: 1
  - symbol: C  # 2
    coordinates: [  0.200000000000003,  0.000000000000000,  0.417997479000000 ]
    mass: 12.010700
    reduced_to: 2
  - symbol: C  # 3
    coordinates: [  0.399999999999999,  0.000000000000000,  0.417997479000000 ]
    mass: 12.010700
    reduced_to: 3
  - symbol: C  # 4
    coordinates: [  0.600000000000001,  0.000000000000000,  0.417997479000000 ]
    mass: 12.010700
    reduced_to: 4
  - symbol: C  # 5
    coordinates: [  0.799999999999997,  0.000000000000000,  0.417997479000000 ]
    mass: 12.010700
    reduced_to: 5
  - symbol: C  # 6
    coordinates: [  0.000000000000000,  0.200000000000003,  0.417997479000000 ]
    mass: 12.010700
    reduced_to: 6
  - symbol: C  # 7
    coordinates: [  0.200000000000003,  0.200000000000003,  0.417997479000000 ]
    mass: 12.010700
    reduced_to: 7
  - symbol: C  # 8
    coordinates: [  0.399999999999999,  0.200000000000003,  0.417997479000000 ]
    mass: 12.010700
    reduced_to: 8
  - symbol: C  # 9
    coordinates: [  0.600000000000001,  0.200000000000003,  0.417997479000000 ]
    mass: 12.010700
    reduced_to: 9
  - symbol: C  # 10
    coordinates: [  0.799999999999997,  0.200000000000003,  0.417997479000000 ]
    mass: 12.010700
    reduced_to: 10
  - symbol: C  # 11
    coordinates: [  0.000000000000000,  0.399999999999999,  0.417997479000000 ]
    mass: 12.010700
    reduced_to: 11
  - symbol: C  # 12
    coordinates: [  0.200000000000003,  0.399999999999999,  0.417997479000000 ]
    mass: 12.010700
    reduced_to: 12
  - symbol: C  # 13
    coordinates: [  0.399999999999999,  0.399999999999999,  0.417997479000000 ]
    mass: 12.010700
    reduced_to: 13
  - symbol: C  # 14
    coordinates: [  0.600000000000001,  0.399999999999999,  0.417997479000000 ]
    mass: 12.010700
    reduced_to: 14
  - symbol: C  # 15
    coordinates: [  0.799999999999997,  0.399999999999999,  0.417997479000000 ]
    mass: 12.010700
    reduced_to: 15
  - symbol: C  # 16
    coordinates: [  0.000000000000000,  0.600000000000001,  0.417997479000000 ]
    mass: 12.010700
    reduced_to: 16
  - symbol: C  # 17
    coordinates: [  0.200000000000003,  0.600000000000001,  0.417997479000000 ]
    mass: 12.010700
    reduced_to: 17
  - symbol: C  # 18
    coordinates: [  0.399999999999999,  0.600000000000001,  0.417997479000000 ]
    mass: 12.010700
    reduced_to: 18
  - symbol: C  # 19
    coordinates: [  0.600000000000001,  0.600000000000001,  0.417997479000000 ]
    mass: 12.010700
    reduced_to: 19
  - symbol: C  # 20
    coordinates: [  0.799999999999997,  0.600000000000001,  0.417997479000000 ]
    mass: 12.010700
    reduced_to: 20
  - symbol: C  # 21
    coordinates: [  0.000000000000000,  0.799999999999997,  0.417997479000000 ]
    mass: 12.010700
    reduced_to: 21
  - symbol: C  # 22
    coordinates: [  0.200000000000003,  0.799999999999997,  0.417997479000000 ]
    mass: 12.010700
    reduced_to: 22
  - symbol: C  # 23
    coordinates: [  0.399999999999999,  0.799999999999997,  0.417997479000000 ]
    mass: 12.010700
    reduced_to: 23
  - symbol: C  # 24
    coordinates: [  0.600000000000001,  0.799999999999997,  0.417997479000000 ]
    mass: 12.010700
    reduced_to: 24
  - symbol: C  # 25
    coordinates: [  0.799999999999997,  0.799999999999997,  0.417997479000000 ]
    mass: 12.010700
    reduced_to: 25
  - symbol: C  # 26
    coordinates: [  0.066666668600000,  0.066666603000002,  0.418006091999999 ]
    mass: 12.010700
    reduced_to: 26
  - symbol: C  # 27
    coordinates: [  0.266666668600003,  0.066666603000002,  0.418006091999999 ]
    mass: 12.010700
    reduced_to: 27
  - symbol: C  # 28
    coordinates: [  0.466666668599999,  0.066666603000002,  0.418006091999999 ]
    mass: 12.010700
    reduced_to: 28
  - symbol: C  # 29
    coordinates: [  0.666666668600001,  0.066666603000002,  0.418006091999999 ]
    mass: 12.010700
    reduced_to: 29
  - symbol: C  # 30
    coordinates: [  0.866666668599997,  0.066666603000002,  0.418006091999999 ]
    mass: 12.010700
    reduced_to: 30
  - symbol: C  # 31
    coordinates: [  0.066666668600000,  0.266666602999997,  0.418006091999999 ]
    mass: 12.010700
    reduced_to: 31
  - symbol: C  # 32
    coordinates: [  0.266666668600003,  0.266666602999997,  0.418006091999999 ]
    mass: 12.010700
    reduced_to: 32
  - symbol: C  # 33
    coordinates: [  0.466666668599999,  0.266666602999997,  0.418006091999999 ]
    mass: 12.010700
    reduced_to: 33
  - symbol: C  # 34
    coordinates: [  0.666666668600001,  0.266666602999997,  0.418006091999999 ]
    mass: 12.010700
    reduced_to: 34
  - symbol: C  # 35
    coordinates: [  0.866666668599997,  0.266666602999997,  0.418006091999999 ]
    mass: 12.010700
    reduced_to: 35
  - symbol: C  # 36
    coordinates: [  0.066666668600000,  0.466666603000000,  0.418006091999999 ]
    mass: 12.010700
    reduced_to: 36
  - symbol: C  # 37
    coordinates: [  0.266666668600003,  0.466666603000000,  0.418006091999999 ]
    mass: 12.010700
    reduced_to: 37
  - symbol: C  # 38
    coordinates: [  0.466666668599999,  0.466666603000000,  0.418006091999999 ]
    mass: 12.010700
    reduced_to: 38
  - symbol: C  # 39
    coordinates: [  0.666666668600001,  0.466666603000000,  0.418006091999999 ]
    mass: 12.010700
    reduced_to: 39
  - symbol: C  # 40
    coordinates: [  0.866666668599997,  0.466666603000000,  0.418006091999999 ]
    mass: 12.010700
    reduced_to: 40
  - symbol: C  # 41
    coordinates: [  0.066666668600000,  0.666666603000003,  0.418006091999999 ]
    mass: 12.010700
    reduced_to: 41
  - symbol: C  # 42
    coordinates: [  0.266666668600003,  0.666666603000003,  0.418006091999999 ]
    mass: 12.010700
    reduced_to: 42
  - symbol: C  # 43
    coordinates: [  0.466666668599999,  0.666666603000003,  0.418006091999999 ]
    mass: 12.010700
    reduced_to: 43
  - symbol: C  # 44
    coordinates: [  0.666666668600001,  0.666666603000003,  0.418006091999999 ]
    mass: 12.010700
    reduced_to: 44
  - symbol: C  # 45
    coordinates: [  0.866666668599997,  0.666666603000003,  0.418006091999999 ]
    mass: 12.010700
    reduced_to: 45
  - symbol: C  # 46
    coordinates: [  0.066666668600000,  0.866666602999999,  0.418006091999999 ]
    mass: 12.010700
    reduced_to: 46
  - symbol: C  # 47
    coordinates: [  0.266666668600003,  0.866666602999999,  0.418006091999999 ]
    mass: 12.010700
    reduced_to: 47
  - symbol: C  # 48
    coordinates: [  0.466666668599999,  0.866666602999999,  0.418006091999999 ]
    mass: 12.010700
    reduced_to: 48
  - symbol: C  # 49
    coordinates: [  0.666666668600001,  0.866666602999999,  0.418006091999999 ]
    mass: 12.010700
    reduced_to: 49
  - symbol: C  # 50
    coordinates: [  0.866666668599997,  0.866666602999999,  0.418006091999999 ]
    mass: 12.010700
    reduced_to: 50
  - symbol: O  # 51
    coordinates: [  0.399999999999999,  0.399999999999999,  0.468006091999999 ]
    mass: 15.999400
    reduced_to: 51
