       N       E                     dE             d eps       ncg     rms          rms(c)
DAV:   1     0.124783363489E+04    0.12478E+04   -0.69064E+04 12656   0.104E+03
DAV:   2    -0.254247947093E+03   -0.15021E+04   -0.14233E+04 18000   0.258E+02
DAV:   3    -0.479202719993E+03   -0.22495E+03   -0.22298E+03 14908   0.104E+02
DAV:   4    -0.486004111957E+03   -0.68014E+01   -0.67417E+01 15008   0.218E+01
DAV:   5    -0.486212494635E+03   -0.20838E+00   -0.20795E+00 16516   0.339E+00
RMM:   6    -0.486217632665E+03   -0.51380E-02   -0.51380E-02 13501   0.592E-01
RMM:   7    -0.486218269231E+03   -0.63657E-03   -0.63247E-03 19218   0.166E-01
RMM:   8    -0.486218275382E+03   -0.61513E-05   -0.66228E-05 16265   0.127E-02
RMM:   9    -0.486218275755E+03   -0.37246E-06   -0.36418E-06 10345   0.364E-03
   1 F= -.48621828E+03 E0= -.48620349E+03  d E =-.295812E-01
