 vasp.5.4.4.18Apr17-6-g9f103f2a35 (build Aug 02 2018 15:13:56) complex          
  
 executed on             LinuxIFC date 2020.05.31  12:29:39
 running on    4 total cores
 distrk:  each k-point on    4 cores,    1 groups
 distr:  one band on NCORES_PER_BAND=   1 cores,    4 groups


--------------------------------------------------------------------------------------------------------


 INCAR:
 POTCAR:    PAW C                                 
 POTCAR:    PAW C                                 
   VRHFIN =C: s2p2                                                              
   LEXCH  = CA                                                                  
   EATOM  =   146.6877 eV,   10.7812 Ry                                         
                                                                                
   TITEL  = PAW C                                                               
   LULTRA =        F    use ultrasoft PP ?                                      
   IUNSCR =        0    unscreen: 0-lin 1-nonlin 2-no                           
   RPACOR =     .000    partial core radius                                     
   POMASS =   12.011; ZVAL   =    4.000    mass and valenz                      
   RCORE  =    1.500    outmost cutoff radius                                   
   RWIGS  =    1.630; RWIGS  =     .863    wigner-seitz radius (au A)           
   ENMAX  =  400.000; ENMIN  =  300.000 eV                                      
   ICORE  =        2    local potential                                         
   LCOR   =        T    correct aug charges                                     
   LPAW   =        T    paw PP                                                  
   EAUG   =  644.873                                                            
   DEXC   =     .000                                                            
   RMAX   =    2.266    core radius for proj-oper                               
   RAUG   =    1.300    factor for augmentation sphere                          
   RDEP   =    1.501    radius for radial grids                                 
   RDEPT  =    1.300    core radius for aug-charge                              
   QCUT   =   -5.516; QGAM   =   11.032    optimization parameters              
                                                                                
   Description                                                                  
     l     E      TYP  RCUT    TYP  RCUT                                        
     0   .000     23  1.200                                                     
     0   .000     23  1.200                                                     
     1   .000     23  1.500                                                     
     1  2.500     23  1.500                                                     
     2   .000      7  1.500                                                     
  local pseudopotential read in
  atomic valenz-charges read in
  non local Contribution for L=           0  read in
    real space projection operators read in
  non local Contribution for L=           0  read in
    real space projection operators read in
  non local Contribution for L=           1  read in
    real space projection operators read in
  non local Contribution for L=           1  read in
    real space projection operators read in
    PAW grid and wavefunctions read in
 
   number of l-projection  operators is LMAX  =           4
   number of lm-projection operators is LMMAX =           8
 
 Optimization of the real space projectors (new method)

 maximal supplied QI-value         = 25.13
 optimisation between [QCUT,QGAM] = [ 10.05, 20.36] = [ 28.30,116.06] Ry 
 Optimized for a Real-space Cutoff    1.30 Angstroem

   l    n(q)    QCUT    max X(q) W(low)/X(q) W(high)/X(q)  e(spline) 
   0      8    10.053     5.578    0.40E-04    0.40E-04    0.54E-07
   0      8    10.053    68.427    0.49E-03    0.71E-03    0.18E-06
   1      7    10.053     2.787    0.79E-04    0.12E-03    0.94E-07
   1      7    10.053     4.374    0.25E-03    0.19E-03    0.21E-06
  PAW C                                 :
 energy of atom  1       EATOM= -146.6877
 kinetic energy error for atom=    0.0289 (will be added to EATOM!!)
 
 
 POSCAR: supercell                               
  positions in direct lattice
  No initial velocities read in
 exchange correlation table for  LEXCH =        2
   RHO(1)=    0.500       N(1)  =     2000
   RHO(2)=  100.500       N(2)  =     4000

 VTST: version 3.1, (03/28/14)

 CHAIN: initializing optimizer
 
 OPT: Using VASP Dynamics algorithm
 CHAIN: Read ICHAIN            0
 
 POSCAR: supercell                               
  positions in direct lattice
  No initial velocities read in
 


--------------------------------------------------------------------------------------------------------


 ion  position               nearest neighbor table
   1  0.000  0.000  0.500-  26 1.42  49 1.42  30 1.42
   2  0.200  0.000  0.500-  27 1.42  45 1.42  26 1.42
   3  0.400  0.000  0.500-  27 1.42  28 1.42  46 1.42
   4  0.600  0.000  0.500-  29 1.42  47 1.42  28 1.42
   5  0.800  0.000  0.500-  29 1.42  30 1.42  48 1.42
   6  0.000  0.200  0.500-  34 1.42  30 1.42  31 1.42
   7  0.200  0.200  0.500-  31 1.42  26 1.42
   8  0.400  0.200  0.500-  27 1.42  32 1.42
   9  0.600  0.200  0.500-  32 1.42  28 1.42  33 1.42
  10  0.800  0.200  0.500-  33 1.42  29 1.42  34 1.42
  11  0.000  0.400  0.500-  34 1.42  35 1.42  39 1.42
  12  0.200  0.400  0.500-  31 1.42  36 1.42  35 1.42
  13  0.400  0.400  0.500-  36 1.42  37 1.42
  14  0.600  0.400  0.500-  32 1.42  38 1.42  37 1.42
  15  0.800  0.400  0.500-  38 1.42  33 1.42  39 1.42
  16  0.000  0.600  0.500-  44 1.42  39 1.42  40 1.42
  17  0.200  0.600  0.500-  40 1.42  35 1.42  41 1.42
  18  0.400  0.600  0.500-  41 1.42  36 1.42  42 1.42
  19  0.600  0.600  0.500-  42 1.42  37 1.42  43 1.42
  20  0.800  0.600  0.500-  43 1.42  38 1.42  44 1.42
  21  0.000  0.800  0.500-  44 1.42  45 1.42  49 1.42
  22  0.200  0.800  0.500-  40 1.42  46 1.42  45 1.42
  23  0.400  0.800  0.500-  46 1.42  41 1.42  47 1.42
  24  0.600  0.800  0.500-  42 1.42  48 1.42  47 1.42
  25  0.800  0.800  0.500-  48 1.42  43 1.42  49 1.42
  26  0.133  0.067  0.500-   1 1.42   7 1.42   2 1.42
  27  0.333  0.067  0.500-   3 1.42   2 1.42   8 1.42
  28  0.533  0.067  0.500-   3 1.42   9 1.42   4 1.42
  29  0.733  0.067  0.500-   5 1.42   4 1.42  10 1.42
  30  0.933  0.067  0.500-   5 1.42   6 1.42   1 1.42
  31  0.133  0.267  0.500-   7 1.42  12 1.42   6 1.42
  32  0.533  0.267  0.500-   9 1.42  14 1.42   8 1.42
  33  0.733  0.267  0.500-  10 1.42  15 1.42   9 1.42
  34  0.933  0.267  0.500-   6 1.42  11 1.42  10 1.42
  35  0.133  0.467  0.500-  11 1.42  17 1.42  12 1.42
  36  0.333  0.467  0.500-  13 1.42  12 1.42  18 1.42
  37  0.533  0.467  0.500-  13 1.42  19 1.42  14 1.42
  38  0.733  0.467  0.500-  15 1.42  14 1.42  20 1.42
  39  0.933  0.467  0.500-  15 1.42  16 1.42  11 1.42
  40  0.133  0.667  0.500-  17 1.42  22 1.42  16 1.42
  41  0.333  0.667  0.500-  18 1.42  23 1.42  17 1.42
  42  0.533  0.667  0.500-  19 1.42  24 1.42  18 1.42
  43  0.733  0.667  0.500-  20 1.42  25 1.42  19 1.42
  44  0.933  0.667  0.500-  16 1.42  21 1.42  20 1.42
  45  0.133  0.867  0.500-   2 1.42  21 1.42  22 1.42
  46  0.333  0.867  0.500-  23 1.42  22 1.42   3 1.42
  47  0.533  0.867  0.500-   4 1.42  23 1.42  24 1.42
  48  0.733  0.867  0.500-  25 1.42  24 1.42   5 1.42
  49  0.933  0.867  0.500-   1 1.42  25 1.42  21 1.42
 
  LATTYP: Found a hexagonal cell.
 ALAT       =    12.3000000000
 C/A-ratio  =     0.8130081301
  
  Lattice vectors:
  
 A1 = (  12.3000000000,   0.0000000000,   0.0000000000)
 A2 = (  -6.1500000000,  10.6521124665,   0.0000000000)
 A3 = (   0.0000000000,   0.0000000000,  10.0000000000)


Analysis of symmetry for initial positions (statically):
=====================================================================
 Subroutine PRICEL returns:
 Original cell was already a primitive cell.
 

 Routine SETGRP: Setting up the symmetry group for a 
 hexagonal supercell.


 Subroutine GETGRP returns: Found 12 space group operations
 (whereof  2 operations were pure point group operations)
 out of a pool of 24 trial point group operations.


The static configuration has the point symmetry C_1h.
 The point group associated with its full space group is D_3h.


Analysis of symmetry for dynamics (positions and initial velocities):
=====================================================================
 Subroutine PRICEL returns:
 Original cell was already a primitive cell.
 

 Routine SETGRP: Setting up the symmetry group for a 
 hexagonal supercell.


 Subroutine GETGRP returns: Found 12 space group operations
 (whereof  2 operations were pure point group operations)
 out of a pool of 24 trial point group operations.


The dynamic configuration has the point symmetry C_1h.
 The point group associated with its full space group is D_3h.


 Subroutine INISYM returns: Found 12 space group operations
 (whereof  2 operations are pure point group operations),
 and found     1 'primitive' translations

 
 
 KPOINTS: KPOINT_file_1                           
  k-points in reciprocal lattice
Space group operators:
 irot       det(A)        alpha          n_x          n_y          n_z        tau_x        tau_y        tau_z
    1     1.000000     0.000000     1.000000     0.000000     0.000000     0.000000     0.000000     0.000000
    2    -1.000000   180.000000     0.000000     0.000000     1.000000     0.000000     0.000000     0.000000
    3    -1.000000    60.000000     0.000000     0.000000    -1.000000     0.400000     0.600000     0.000000
    4     1.000000   120.000000     0.000000     0.000000    -1.000000     0.600000     0.200000     0.000000
    5     1.000000   120.000000     0.000000     0.000000     1.000000     0.400000     0.600000     0.000000
    6    -1.000000    60.000000     0.000000     0.000000     1.000000     0.600000     0.200000     0.000000
    7    -1.000000   180.000000     1.000000     0.000000     0.000000     0.400000     0.000000     0.000000
    8     1.000000   180.000000     0.866025    -0.500000     0.000000     0.600000     0.600000     0.000000
    9    -1.000000   180.000000     0.500000    -0.866025     0.000000     0.000000     0.200000     0.000000
   10     1.000000   180.000000     0.000000     1.000000     0.000000     0.400000     0.000000     0.000000
   11    -1.000000   180.000000    -0.500000    -0.866025     0.000000     0.600000     0.600000     0.000000
   12     1.000000   180.000000     0.866025     0.500000     0.000000     0.000000     0.200000     0.000000


--------------------------------------------------------------------------------------------------------




 Dimension of arrays:
   k-points           NKPTS =     50   k-points in BZ     NKDIM =     50   number of bands    NBANDS=    124
   number of dos      NEDOS =    301   number of ions     NIONS =     49
   non local maximal  LDIM  =      4   non local SUM 2l+1 LMDIM =      8
   total plane-waves  NPLWV = 180000
   max r-space proj   IRMAX =   1318   max aug-charges    IRDMAX=   1821
   dimension x,y,z NGX =    60 NGY =   60 NGZ =   50
   dimension x,y,z NGXF=   120 NGYF=  120 NGZF=  100
   support grid    NGXF=   120 NGYF=  120 NGZF=  100
   ions per type =              49
   NGX,Y,Z   is equivalent  to a cutoff of   8.11,  8.11,  8.31 a.u.
   NGXF,Y,Z  is equivalent  to a cutoff of  16.22, 16.22, 16.62 a.u.

 SYSTEM =  vasp                                    
 POSCAR =  supercell                               

 Startparameter for this run:
   NWRITE =      2    write-flag & timer
   PREC   = normal    normal or accurate (medium, high low for compatibility)
   ISTART =      0    job   : 0-new  1-cont  2-samecut
   ICHARG =     11    charge: 1-file 2-atom 10-const
   ISPIN  =      1    spin polarized calculation?
   LNONCOLLINEAR =      F non collinear calculations
   LSORBIT =      F    spin-orbit coupling
   INIWAV =      1    electr: 0-lowe 1-rand  2-diag
   LASPH  =      F    aspherical Exc in radial PAW
   METAGGA=      F    non-selfconsistent MetaGGA calc.

 Electronic Relaxation 1
   ENCUT  =  400.0 eV  29.40 Ry    5.42 a.u.  20.06 20.06 16.31*2*pi/ulx,y,z
   ENINI  =  400.0     initial cutoff
   ENAUG  =  644.9 eV  augmentation charge cutoff
   NELM   =    200;   NELMIN=  2; NELMDL=  0     # of ELM steps 
   EDIFF  = 0.1E-05   stopping-criterion for ELM
   LREAL  =      T    real-space projection
   NLSPLINE    = F    spline interpolate recip. space projectors
   LCOMPAT=      F    compatible to vasp.4.4
   GGA_COMPAT  = T    GGA compatible to vasp.4.4-vasp.4.6
   LMAXPAW     = -100 max onsite density
   LMAXMIX     =    2 max onsite mixed and CHGCAR
   VOSKOWN=      0    Vosko Wilk Nusair interpolation
   ROPT   =   -0.00050
 Ionic relaxation
   EDIFFG = 0.1E-04   stopping-criterion for IOM
   NSW    =      0    number of steps for IOM
   NBLOCK =      1;   KBLOCK =      1    inner block; outer block 
   IBRION =     -1    ionic relax: 0-MD 1-quasi-New 2-CG
   NFREE  =      0    steps in history (QN), initial steepest desc. (CG)
   ISIF   =      2    stress and relaxation
   IWAVPR =     10    prediction:  0-non 1-charg 2-wave 3-comb
   ISYM   =      2    0-nonsym 1-usesym 2-fastsym
   LCORR  =      T    Harris-Foulkes like correction to forces

   POTIM  = 0.5000    time-step for ionic-motion
   TEIN   =    0.0    initial temperature
   TEBEG  =    0.0;   TEEND  =   0.0 temperature during run
   SMASS  =  -3.00    Nose mass-parameter (am)
   estimated Nose-frequenzy (Omega)   =  0.10E-29 period in steps =****** mass=  -0.346E-26a.u.
   SCALEE = 1.0000    scale energy and forces
   NPACO  =    256;   APACO  = 16.0  distance and # of slots for P.C.
   PSTRESS=    0.0 pullay stress

  Mass of Ions in am
   POMASS =  12.01
  Ionic Valenz
   ZVAL   =   4.00
  Atomic Wigner-Seitz radii
   RWIGS  =  -1.00
  virtual crystal weights 
   VCA    =   1.00
   NELECT =     196.0000    total number of electrons
   NUPDOWN=      -1.0000    fix difference up-down

 DOS related values:
   EMIN   =  10.00;   EMAX   =-10.00  energy-range for DOS
   EFERMI =   0.00
   ISMEAR =    -1;   SIGMA  =   0.02  broadening in eV -4-tet -1-fermi 0-gaus

 Electronic relaxation 2 (details)
   IALGO  =     68    algorithm
   LDIAG  =      T    sub-space diagonalisation (order eigenvalues)
   LSUBROT=      F    optimize rotation matrix (better conditioning)
   TURBO    =      0    0=normal 1=particle mesh
   IRESTART =      0    0=no restart 2=restart with 2 vectors
   NREBOOT  =      0    no. of reboots
   NMIN     =      0    reboot dimension
   EREF     =   0.00    reference energy to select bands
   IMIX   =      4    mixing-type and parameters
     AMIX     =   0.40;   BMIX     =  1.00
     AMIX_MAG =   1.60;   BMIX_MAG =  1.00
     AMIN     =   0.10
     WC   =   100.;   INIMIX=   1;  MIXPRE=   1;  MAXMIX= -45

 Intra band minimization:
   WEIMIN = 0.0000     energy-eigenvalue tresh-hold
   EBREAK =  0.20E-08  absolut break condition
   DEPER  =   0.30     relativ break condition  

   TIME   =   0.40     timestep for ELM

  volume/ion in A,a.u.               =      26.74       180.44
  Fermi-wavevector in a.u.,A,eV,Ry     =   0.869054  1.642273 10.275857  0.755254
  Thomas-Fermi vector in A             =   1.987821
 
 Write flags
   LWAVE        =      T    write WAVECAR
   LDOWNSAMPLE  =      F    k-point downsampling of WAVECAR
   LCHARG       =      F    write CHGCAR
   LVTOT        =      F    write LOCPOT, total local potential
   LVHAR        =      F    write LOCPOT, Hartree potential only
   LELF         =      F    write electronic localiz. function (ELF)
   LORBIT       =      0    0 simple, 1 ext, 2 COOP (PROOUT), +10 PAW based schemes


 Dipole corrections
   LMONO  =      F    monopole corrections only (constant potential shift)
   LDIPOL =      F    correct potential (dipole corrections)
   IDIPOL =      0    1-x, 2-y, 3-z, 4-all directions 
   EPSILON=  1.0000000 bulk dielectric constant

 Exchange correlation treatment:
   GGA     =    --    GGA type
   LEXCH   =     2    internal setting for exchange type
   VOSKOWN=      0    Vosko Wilk Nusair interpolation
   LHFCALC =     F    Hartree Fock is set to
   LHFONE  =     F    Hartree Fock one center treatment
   AEXX    =    0.0000 exact exchange contribution

 Linear response parameters
   LEPSILON=     F    determine dielectric tensor
   LRPA    =     F    only Hartree local field effects (RPA)
   LNABLA  =     F    use nabla operator in PAW spheres
   LVEL    =     F    velocity operator in full k-point grid
   LINTERFAST=   F  fast interpolation
   KINTER  =     0    interpolate to denser k-point grid
   CSHIFT  =0.1000    complex shift for real part using Kramers Kronig
   OMEGAMAX=  -1.0    maximum frequency
   DEG_THRESHOLD= 0.2000000E-02 threshold for treating states as degnerate
   RTIME   =   -0.100 relaxation time in fs
  (WPLASMAI=    0.000 imaginary part of plasma frequency in eV, 0.658/RTIME)
   DFIELD  = 0.0000000 0.0000000 0.0000000 field for delta impulse in time
 
 Orbital magnetization related:
   ORBITALMAG=     F  switch on orbital magnetization
   LCHIMAG   =     F  perturbation theory with respect to B field
   DQ        =  0.001000  dq finite difference perturbation B field
   LLRAUG    =     F  two centre corrections for induced B field



--------------------------------------------------------------------------------------------------------


 Static calculation
 charge density and potential remain constant during run
 non-spin polarized calculation
 RMM-DIIS sequential band-by-band and
  variant of blocked Davidson during initial phase
 perform sub-space diagonalisation
    before iterative eigenvector-optimisation
 no mixing
 using additional bands           26
 real space projection scheme for non local part
 calculate Harris-corrections to forces 
   (improved forces if not selfconsistent)
 use of overlap-Matrix (Vanderbilt PP)
 Fermi-smearing in eV        SIGMA  =   0.02


--------------------------------------------------------------------------------------------------------


  energy-cutoff  :      400.00
  volume of cell :     1310.21
      direct lattice vectors                 reciprocal lattice vectors
    12.300000000  0.000000000  0.000000000     0.081300813  0.046939046  0.000000000
    -6.150000000 10.652112467  0.000000000     0.000000000  0.093878093  0.000000000
     0.000000000  0.000000000 10.000000000     0.000000000  0.000000000  0.100000000

  length of vectors
    12.300000000 12.300000000 10.000000000     0.093878093  0.093878093  0.100000000


 
 k-points in units of 2pi/SCALE and weight: KPOINT_file_1                           
   0.00000000  0.00000000  0.00000000       0.020
   0.00135501  0.00234695  0.00000000       0.020
   0.00271003  0.00469390  0.00000000       0.020
   0.00406504  0.00704086  0.00000000       0.020
   0.00542005  0.00938781  0.00000000       0.020
   0.00677507  0.01173476  0.00000000       0.020
   0.00813008  0.01408171  0.00000000       0.020
   0.00948509  0.01642867  0.00000000       0.020
   0.01084011  0.01877562  0.00000000       0.020
   0.01219512  0.02112257  0.00000000       0.020
   0.01355014  0.02346952  0.00000000       0.020
   0.01490515  0.02581648  0.00000000       0.020
   0.01626016  0.02816343  0.00000000       0.020
   0.01761518  0.03051038  0.00000000       0.020
   0.01897019  0.03285733  0.00000000       0.020
   0.02032520  0.03520428  0.00000000       0.020
   0.02168022  0.03755124  0.00000000       0.020
   0.02303523  0.03989819  0.00000000       0.020
   0.02439024  0.04224514  0.00000000       0.020
   0.02574526  0.04459209  0.00000000       0.020
   0.02710027  0.04693905  0.00000000       0.020
   0.02845528  0.04928600  0.00000000       0.020
   0.02981030  0.05163295  0.00000000       0.020
   0.03116531  0.05397990  0.00000000       0.020
   0.03252033  0.05632686  0.00000000       0.020
   0.03387534  0.05867381  0.00000000       0.020
   0.03523035  0.06102076  0.00000000       0.020
   0.03658537  0.06336771  0.00000000       0.020
   0.03794038  0.06571466  0.00000000       0.020
   0.03929539  0.06806162  0.00000000       0.020
   0.04065041  0.07040857  0.00000000       0.020
   0.04200542  0.07275552  0.00000000       0.020
   0.04336043  0.07510247  0.00000000       0.020
   0.04471545  0.07744943  0.00000000       0.020
   0.04607046  0.07979638  0.00000000       0.020
   0.04742547  0.08214333  0.00000000       0.020
   0.04878049  0.08449028  0.00000000       0.020
   0.05013550  0.08683724  0.00000000       0.020
   0.05149051  0.08918419  0.00000000       0.020
   0.05284553  0.09153114  0.00000000       0.020
   0.05420054  0.09387809  0.00000000       0.020
   0.05555556  0.09622504  0.00000000       0.020
   0.05691057  0.09857200  0.00000000       0.020
   0.05826558  0.10091895  0.00000000       0.020
   0.05962060  0.10326590  0.00000000       0.020
   0.06097561  0.10561285  0.00000000       0.020
   0.06233062  0.10795981  0.00000000       0.020
   0.06368564  0.11030676  0.00000000       0.020
   0.06504065  0.11265371  0.00000000       0.020
   0.06639566  0.11500066  0.00000000       0.020
 
 k-points in reciprocal lattice and weights: KPOINT_file_1                           
   0.00000000  0.00000000  0.00000000       0.020
   0.01666667  0.01666667  0.00000000       0.020
   0.03333333  0.03333333  0.00000000       0.020
   0.05000000  0.05000000  0.00000000       0.020
   0.06666667  0.06666667  0.00000000       0.020
   0.08333333  0.08333333  0.00000000       0.020
   0.10000000  0.10000000  0.00000000       0.020
   0.11666667  0.11666667  0.00000000       0.020
   0.13333333  0.13333333  0.00000000       0.020
   0.15000000  0.15000000  0.00000000       0.020
   0.16666667  0.16666667  0.00000000       0.020
   0.18333333  0.18333333  0.00000000       0.020
   0.20000000  0.20000000  0.00000000       0.020
   0.21666667  0.21666667  0.00000000       0.020
   0.23333333  0.23333333  0.00000000       0.020
   0.25000000  0.25000000  0.00000000       0.020
   0.26666667  0.26666667  0.00000000       0.020
   0.28333333  0.28333333  0.00000000       0.020
   0.30000000  0.30000000  0.00000000       0.020
   0.31666667  0.31666667  0.00000000       0.020
   0.33333333  0.33333333  0.00000000       0.020
   0.35000000  0.35000000  0.00000000       0.020
   0.36666667  0.36666667  0.00000000       0.020
   0.38333333  0.38333333  0.00000000       0.020
   0.40000000  0.40000000  0.00000000       0.020
   0.41666667  0.41666667  0.00000000       0.020
   0.43333333  0.43333333  0.00000000       0.020
   0.45000000  0.45000000  0.00000000       0.020
   0.46666667  0.46666667  0.00000000       0.020
   0.48333333  0.48333333  0.00000000       0.020
   0.50000000  0.50000000  0.00000000       0.020
   0.51666667  0.51666667  0.00000000       0.020
   0.53333333  0.53333333  0.00000000       0.020
   0.55000000  0.55000000  0.00000000       0.020
   0.56666667  0.56666667  0.00000000       0.020
   0.58333333  0.58333333  0.00000000       0.020
   0.60000000  0.60000000  0.00000000       0.020
   0.61666667  0.61666667  0.00000000       0.020
   0.63333333  0.63333333  0.00000000       0.020
   0.65000000  0.65000000  0.00000000       0.020
   0.66666667  0.66666667  0.00000000       0.020
   0.68333333  0.68333333  0.00000000       0.020
   0.70000000  0.70000000  0.00000000       0.020
   0.71666667  0.71666667  0.00000000       0.020
   0.73333333  0.73333333  0.00000000       0.020
   0.75000000  0.75000000  0.00000000       0.020
   0.76666667  0.76666667  0.00000000       0.020
   0.78333333  0.78333333  0.00000000       0.020
   0.80000000  0.80000000  0.00000000       0.020
   0.81666667  0.81666667  0.00000000       0.020
 
 position of ions in fractional coordinates (direct lattice) 
   0.00000000  0.00000000  0.50000000
   0.20000000  0.00000000  0.50000000
   0.40000000  0.00000000  0.50000000
   0.60000000  0.00000000  0.50000000
   0.80000000  0.00000000  0.50000000
   0.00000000  0.20000000  0.50000000
   0.20000000  0.20000000  0.50000000
   0.40000000  0.20000000  0.50000000
   0.60000000  0.20000000  0.50000000
   0.80000000  0.20000000  0.50000000
   0.00000000  0.40000000  0.50000000
   0.20000000  0.40000000  0.50000000
   0.40000000  0.40000000  0.50000000
   0.60000000  0.40000000  0.50000000
   0.80000000  0.40000000  0.50000000
   0.00000000  0.60000000  0.50000000
   0.20000000  0.60000000  0.50000000
   0.40000000  0.60000000  0.50000000
   0.60000000  0.60000000  0.50000000
   0.80000000  0.60000000  0.50000000
   0.00000000  0.80000000  0.50000000
   0.20000000  0.80000000  0.50000000
   0.40000000  0.80000000  0.50000000
   0.60000000  0.80000000  0.50000000
   0.80000000  0.80000000  0.50000000
   0.13333333  0.06666667  0.50000000
   0.33333333  0.06666667  0.50000000
   0.53333333  0.06666667  0.50000000
   0.73333333  0.06666667  0.50000000
   0.93333333  0.06666667  0.50000000
   0.13333333  0.26666667  0.50000000
   0.53333333  0.26666667  0.50000000
   0.73333333  0.26666667  0.50000000
   0.93333333  0.26666667  0.50000000
   0.13333333  0.46666667  0.50000000
   0.33333333  0.46666667  0.50000000
   0.53333333  0.46666667  0.50000000
   0.73333333  0.46666667  0.50000000
   0.93333333  0.46666667  0.50000000
   0.13333333  0.66666667  0.50000000
   0.33333333  0.66666667  0.50000000
   0.53333333  0.66666667  0.50000000
   0.73333333  0.66666667  0.50000000
   0.93333333  0.66666667  0.50000000
   0.13333333  0.86666667  0.50000000
   0.33333333  0.86666667  0.50000000
   0.53333333  0.86666667  0.50000000
   0.73333333  0.86666667  0.50000000
   0.93333333  0.86666667  0.50000000
 
 position of ions in cartesian coordinates  (Angst):
   0.00000000  0.00000000  5.00000000
   2.46000000  0.00000000  5.00000000
   4.92000000  0.00000000  5.00000000
   7.38000000  0.00000000  5.00000000
   9.84000000  0.00000000  5.00000000
  -1.23000000  2.13042249  5.00000000
   1.23000000  2.13042249  5.00000000
   3.69000000  2.13042249  5.00000000
   6.15000000  2.13042249  5.00000000
   8.61000000  2.13042249  5.00000000
  -2.46000000  4.26084499  5.00000000
   0.00000000  4.26084499  5.00000000
   2.46000000  4.26084499  5.00000000
   4.92000000  4.26084499  5.00000000
   7.38000000  4.26084499  5.00000000
  -3.69000000  6.39126748  5.00000000
  -1.23000000  6.39126748  5.00000000
   1.23000000  6.39126748  5.00000000
   3.69000000  6.39126748  5.00000000
   6.15000000  6.39126748  5.00000000
  -4.92000000  8.52168997  5.00000000
  -2.46000000  8.52168997  5.00000000
   0.00000000  8.52168997  5.00000000
   2.46000000  8.52168997  5.00000000
   4.92000000  8.52168997  5.00000000
   1.23000000  0.71014083  5.00000000
   3.69000000  0.71014083  5.00000000
   6.15000000  0.71014083  5.00000000
   8.61000000  0.71014083  5.00000000
  11.07000000  0.71014083  5.00000000
   0.00000000  2.84056332  5.00000000
   4.92000000  2.84056332  5.00000000
   7.38000000  2.84056332  5.00000000
   9.84000000  2.84056332  5.00000000
  -1.23000000  4.97098582  5.00000000
   1.23000000  4.97098582  5.00000000
   3.69000000  4.97098582  5.00000000
   6.15000000  4.97098582  5.00000000
   8.61000000  4.97098582  5.00000000
  -2.46000000  7.10140831  5.00000000
   0.00000000  7.10140831  5.00000000
   2.46000000  7.10140831  5.00000000
   4.92000000  7.10140831  5.00000000
   7.38000000  7.10140831  5.00000000
  -3.69000000  9.23183080  5.00000000
  -1.23000000  9.23183080  5.00000000
   1.23000000  9.23183080  5.00000000
   3.69000000  9.23183080  5.00000000
   6.15000000  9.23183080  5.00000000
 


--------------------------------------------------------------------------------------------------------


 k-point  1 :   0.0000 0.0000 0.0000  plane waves:   23799
 k-point  2 :   0.0167 0.0167 0.0000  plane waves:   23779
 k-point  3 :   0.0333 0.0333 0.0000  plane waves:   23786
 k-point  4 :   0.0500 0.0500 0.0000  plane waves:   23746
 k-point  5 :   0.0667 0.0667 0.0000  plane waves:   23756
 k-point  6 :   0.0833 0.0833 0.0000  plane waves:   23766
 k-point  7 :   0.1000 0.1000 0.0000  plane waves:   23770
 k-point  8 :   0.1167 0.1167 0.0000  plane waves:   23760
 k-point  9 :   0.1333 0.1333 0.0000  plane waves:   23778
 k-point 10 :   0.1500 0.1500 0.0000  plane waves:   23782
 k-point 11 :   0.1667 0.1667 0.0000  plane waves:   23790
 k-point 12 :   0.1833 0.1833 0.0000  plane waves:   23808
 k-point 13 :   0.2000 0.2000 0.0000  plane waves:   23818
 k-point 14 :   0.2167 0.2167 0.0000  plane waves:   23826
 k-point 15 :   0.2333 0.2333 0.0000  plane waves:   23818
 k-point 16 :   0.2500 0.2500 0.0000  plane waves:   23820
 k-point 17 :   0.2667 0.2667 0.0000  plane waves:   23824
 k-point 18 :   0.2833 0.2833 0.0000  plane waves:   23826
 k-point 19 :   0.3000 0.3000 0.0000  plane waves:   23846
 k-point 20 :   0.3167 0.3167 0.0000  plane waves:   23850
 k-point 21 :   0.3333 0.3333 0.0000  plane waves:   23826
 k-point 22 :   0.3500 0.3500 0.0000  plane waves:   23856
 k-point 23 :   0.3667 0.3667 0.0000  plane waves:   23856
 k-point 24 :   0.3833 0.3833 0.0000  plane waves:   23840
 k-point 25 :   0.4000 0.4000 0.0000  plane waves:   23850
 k-point 26 :   0.4167 0.4167 0.0000  plane waves:   23846
 k-point 27 :   0.4333 0.4333 0.0000  plane waves:   23822
 k-point 28 :   0.4500 0.4500 0.0000  plane waves:   23814
 k-point 29 :   0.4667 0.4667 0.0000  plane waves:   23812
 k-point 30 :   0.4833 0.4833 0.0000  plane waves:   23814
 k-point 31 :   0.5000 0.5000 0.0000  plane waves:   23830
 k-point 32 :   0.5167 0.5167 0.0000  plane waves:   23814
 k-point 33 :   0.5333 0.5333 0.0000  plane waves:   23812
 k-point 34 :   0.5500 0.5500 0.0000  plane waves:   23814
 k-point 35 :   0.5667 0.5667 0.0000  plane waves:   23822
 k-point 36 :   0.5833 0.5833 0.0000  plane waves:   23846
 k-point 37 :   0.6000 0.6000 0.0000  plane waves:   23850
 k-point 38 :   0.6167 0.6167 0.0000  plane waves:   23840
 k-point 39 :   0.6333 0.6333 0.0000  plane waves:   23856
 k-point 40 :   0.6500 0.6500 0.0000  plane waves:   23856
 k-point 41 :   0.6667 0.6667 0.0000  plane waves:   23826
 k-point 42 :   0.6833 0.6833 0.0000  plane waves:   23850
 k-point 43 :   0.7000 0.7000 0.0000  plane waves:   23846
 k-point 44 :   0.7167 0.7167 0.0000  plane waves:   23826
 k-point 45 :   0.7333 0.7333 0.0000  plane waves:   23824
 k-point 46 :   0.7500 0.7500 0.0000  plane waves:   23820
 k-point 47 :   0.7667 0.7667 0.0000  plane waves:   23818
 k-point 48 :   0.7833 0.7833 0.0000  plane waves:   23826
 k-point 49 :   0.8000 0.8000 0.0000  plane waves:   23818
 k-point 50 :   0.8167 0.8167 0.0000  plane waves:   23808

 maximum and minimum number of plane-waves per node :     23856    23746

 maximum number of plane-waves:     23856
 maximum index in each direction: 
   IXMAX=   20   IYMAX=   20   IZMAX=   16
   IXMIN=  -20   IYMIN=  -20   IZMIN=  -16


 serial   3D FFT for wavefunctions
 parallel 3D FFT for charge:
    minimum data exchange during FFTs selected (reduces bandwidth)


 total amount of memory used by VASP MPI-rank0   674524. kBytes
=======================================================================

   base      :      30000. kBytes
   nonlr-proj:       5203. kBytes
   fftplans  :      13053. kBytes
   grid      :      24768. kBytes
   one-center:        150. kBytes
   wavefun   :     601350. kBytes
 
     INWAV:  cpu time    0.0000: real time    0.0000
 initial charge density was supplied:
 number of electron     195.9999579 magnetization 
 keeping initial charge density in first step


--------------------------------------------------------------------------------------------------------


 Maximum index for non-local projection operator         1207
 Maximum index for augmentation-charges          367 (set IRDMAX)


--------------------------------------------------------------------------------------------------------


 First call to EWALD:  gamma=   0.162
 Maximum number of real-space cells 3x 3x 3
 Maximum number of reciprocal cells 3x 3x 3

    FEWALD:  cpu time    0.0046: real time    0.0046


----------------------------------------- Iteration    1(   1)  ---------------------------------------


    POTLOK:  cpu time    0.0604: real time    0.1201
    SETDIJ:  cpu time    0.0078: real time    0.0197
     EDDAV:  cpu time   30.8223: real time   61.9098
       DOS:  cpu time    0.0010: real time    0.0010
    --------------------------------------------
      LOOP:  cpu time   30.8937: real time   62.0530

 eigenvalue-minimisations  : 12656
 total energy-change (2. order) : 0.1247834E+04  (-0.6906383E+04)
 number of electron     195.9999579 magnetization 
 augmentation part      195.9999579 magnetization 

 Free energy of the ion-electron system (eV)
  ---------------------------------------------------
  alpha Z        PSCENC =       138.85708194
  Ewald energy   TEWEN  =      9130.28498459
  -Hartree energ DENC   =    -15507.95981469
  -exchange      EXHF   =         0.00000000
  -V(xc)+E(xc)   XCENC  =       707.36475670
  PAW double counting   =      3406.89119115    -3469.63674197
  entropy T*S    EENTRO =        -0.01459749
  eigenvalues    EBANDS =      -344.23457675
  atomic energy  EATOM  =      7186.28135141
  Solvation  Ediel_sol  =         0.00000000
  ---------------------------------------------------
  free energy    TOTEN  =      1247.83363489 eV

  energy without entropy =     1247.84823238  energy(sigma->0) =     1247.84093364


--------------------------------------------------------------------------------------------------------




----------------------------------------- Iteration    1(   2)  ---------------------------------------


     EDDAV:  cpu time   31.0290: real time   62.1264
       DOS:  cpu time    0.0001: real time    0.0008
    --------------------------------------------
      LOOP:  cpu time   31.0307: real time   62.1280

 eigenvalue-minimisations  : 18000
 total energy-change (2. order) :-0.1502082E+04  (-0.1423277E+04)
 number of electron     195.9999579 magnetization 
 augmentation part      195.9999579 magnetization 

 Free energy of the ion-electron system (eV)
  ---------------------------------------------------
  alpha Z        PSCENC =       138.85708194
  Ewald energy   TEWEN  =      9130.28498459
  -Hartree energ DENC   =    -15507.95981469
  -exchange      EXHF   =         0.00000000
  -V(xc)+E(xc)   XCENC  =       707.36475670
  PAW double counting   =      3406.89119115    -3469.63674197
  entropy T*S    EENTRO =        -0.00446162
  eigenvalues    EBANDS =     -1846.32629460
  atomic energy  EATOM  =      7186.28135141
  Solvation  Ediel_sol  =         0.00000000
  ---------------------------------------------------
  free energy    TOTEN  =      -254.24794709 eV

  energy without entropy =     -254.24348547  energy(sigma->0) =     -254.24571628


--------------------------------------------------------------------------------------------------------




----------------------------------------- Iteration    1(   3)  ---------------------------------------


     EDDAV:  cpu time   29.1995: real time   58.5050
       DOS:  cpu time    0.0009: real time    0.0010
    --------------------------------------------
      LOOP:  cpu time   29.2012: real time   58.5068

 eigenvalue-minimisations  : 14908
 total energy-change (2. order) :-0.2249548E+03  (-0.2229845E+03)
 number of electron     195.9999579 magnetization 
 augmentation part      195.9999579 magnetization 

 Free energy of the ion-electron system (eV)
  ---------------------------------------------------
  alpha Z        PSCENC =       138.85708194
  Ewald energy   TEWEN  =      9130.28498459
  -Hartree energ DENC   =    -15507.95981469
  -exchange      EXHF   =         0.00000000
  -V(xc)+E(xc)   XCENC  =       707.36475670
  PAW double counting   =      3406.89119115    -3469.63674197
  entropy T*S    EENTRO =        -0.01956591
  eigenvalues    EBANDS =     -2071.26596322
  atomic energy  EATOM  =      7186.28135141
  Solvation  Ediel_sol  =         0.00000000
  ---------------------------------------------------
  free energy    TOTEN  =      -479.20271999 eV

  energy without entropy =     -479.18315409  energy(sigma->0) =     -479.19293704


--------------------------------------------------------------------------------------------------------




----------------------------------------- Iteration    1(   4)  ---------------------------------------


     EDDAV:  cpu time   34.5874: real time   69.4439
       DOS:  cpu time    0.0009: real time    0.0009
    --------------------------------------------
      LOOP:  cpu time   34.5886: real time   69.4451

 eigenvalue-minimisations  : 15008
 total energy-change (2. order) :-0.6801392E+01  (-0.6741669E+01)
 number of electron     195.9999579 magnetization 
 augmentation part      195.9999579 magnetization 

 Free energy of the ion-electron system (eV)
  ---------------------------------------------------
  alpha Z        PSCENC =       138.85708194
  Ewald energy   TEWEN  =      9130.28498459
  -Hartree energ DENC   =    -15507.95981469
  -exchange      EXHF   =         0.00000000
  -V(xc)+E(xc)   XCENC  =       707.36475670
  PAW double counting   =      3406.89119115    -3469.63674197
  entropy T*S    EENTRO =        -0.02925490
  eigenvalues    EBANDS =     -2078.05766620
  atomic energy  EATOM  =      7186.28135141
  Solvation  Ediel_sol  =         0.00000000
  ---------------------------------------------------
  free energy    TOTEN  =      -486.00411196 eV

  energy without entropy =     -485.97485706  energy(sigma->0) =     -485.98948451


--------------------------------------------------------------------------------------------------------




----------------------------------------- Iteration    1(   5)  ---------------------------------------


     EDDAV:  cpu time   29.0480: real time   58.2069
       DOS:  cpu time    0.0009: real time    0.0009
    --------------------------------------------
      LOOP:  cpu time   29.0492: real time   58.2081

 eigenvalue-minimisations  : 16516
 total energy-change (2. order) :-0.2083827E+00  (-0.2079482E+00)
 number of electron     195.9999579 magnetization 
 augmentation part      195.9999579 magnetization 

 Free energy of the ion-electron system (eV)
  ---------------------------------------------------
  alpha Z        PSCENC =       138.85708194
  Ewald energy   TEWEN  =      9130.28498459
  -Hartree energ DENC   =    -15507.95981469
  -exchange      EXHF   =         0.00000000
  -V(xc)+E(xc)   XCENC  =       707.36475670
  PAW double counting   =      3406.89119115    -3469.63674197
  entropy T*S    EENTRO =        -0.02957438
  eigenvalues    EBANDS =     -2078.26572939
  atomic energy  EATOM  =      7186.28135141
  Solvation  Ediel_sol  =         0.00000000
  ---------------------------------------------------
  free energy    TOTEN  =      -486.21249464 eV

  energy without entropy =     -486.18292026  energy(sigma->0) =     -486.19770745


--------------------------------------------------------------------------------------------------------




----------------------------------------- Iteration    1(   6)  ---------------------------------------


    EDDIAG:  cpu time    4.0492: real time    8.1112
  RMM-DIIS:  cpu time    6.0812: real time   12.1702
    ORTHCH:  cpu time    1.8772: real time    3.7573
       DOS:  cpu time    0.0010: real time    0.0009
    --------------------------------------------
      LOOP:  cpu time   12.0096: real time   24.0402

 eigenvalue-minimisations  : 13501
 total energy-change (2. order) :-0.5138029E-02  (-0.5137984E-02)
 number of electron     195.9999579 magnetization 
 augmentation part      195.9999579 magnetization 

 Free energy of the ion-electron system (eV)
  ---------------------------------------------------
  alpha Z        PSCENC =       138.85708194
  Ewald energy   TEWEN  =      9130.28498459
  -Hartree energ DENC   =    -15507.95981469
  -exchange      EXHF   =         0.00000000
  -V(xc)+E(xc)   XCENC  =       707.36475670
  PAW double counting   =      3406.89119115    -3469.63674197
  entropy T*S    EENTRO =        -0.02957959
  eigenvalues    EBANDS =     -2078.27086221
  atomic energy  EATOM  =      7186.28135141
  Solvation  Ediel_sol  =         0.00000000
  ---------------------------------------------------
  free energy    TOTEN  =      -486.21763266 eV

  energy without entropy =     -486.18805308  energy(sigma->0) =     -486.20284287


--------------------------------------------------------------------------------------------------------




----------------------------------------- Iteration    1(   7)  ---------------------------------------


    EDDIAG:  cpu time    3.6077: real time    7.2166
  RMM-DIIS:  cpu time    8.6566: real time   17.5437
    ORTHCH:  cpu time    1.8873: real time    3.7780
       DOS:  cpu time    0.0012: real time    0.0046
    --------------------------------------------
      LOOP:  cpu time   14.1532: real time   28.5434

 eigenvalue-minimisations  : 19218
 total energy-change (2. order) :-0.6365667E-03  (-0.6324734E-03)
 number of electron     195.9999579 magnetization 
 augmentation part      195.9999579 magnetization 

 Free energy of the ion-electron system (eV)
  ---------------------------------------------------
  alpha Z        PSCENC =       138.85708194
  Ewald energy   TEWEN  =      9130.28498459
  -Hartree energ DENC   =    -15507.95981469
  -exchange      EXHF   =         0.00000000
  -V(xc)+E(xc)   XCENC  =       707.36475670
  PAW double counting   =      3406.89119115    -3469.63674197
  entropy T*S    EENTRO =        -0.02958107
  eigenvalues    EBANDS =     -2078.27149729
  atomic energy  EATOM  =      7186.28135141
  Solvation  Ediel_sol  =         0.00000000
  ---------------------------------------------------
  free energy    TOTEN  =      -486.21826923 eV

  energy without entropy =     -486.18868816  energy(sigma->0) =     -486.20347870


--------------------------------------------------------------------------------------------------------




----------------------------------------- Iteration    1(   8)  ---------------------------------------


    EDDIAG:  cpu time    3.7659: real time    7.5434
  RMM-DIIS:  cpu time    8.3045: real time   16.6515
    ORTHCH:  cpu time    1.8979: real time    3.7978
       DOS:  cpu time    0.0010: real time    0.0017
    --------------------------------------------
      LOOP:  cpu time   13.9698: real time   27.9949

 eigenvalue-minimisations  : 16265
 total energy-change (2. order) :-0.6151284E-05  (-0.6622759E-05)
 number of electron     195.9999579 magnetization 
 augmentation part      195.9999579 magnetization 

 Free energy of the ion-electron system (eV)
  ---------------------------------------------------
  alpha Z        PSCENC =       138.85708194
  Ewald energy   TEWEN  =      9130.28498459
  -Hartree energ DENC   =    -15507.95981469
  -exchange      EXHF   =         0.00000000
  -V(xc)+E(xc)   XCENC  =       707.36475670
  PAW double counting   =      3406.89119115    -3469.63674197
  entropy T*S    EENTRO =        -0.02958119
  eigenvalues    EBANDS =     -2078.27150333
  atomic energy  EATOM  =      7186.28135141
  Solvation  Ediel_sol  =         0.00000000
  ---------------------------------------------------
  free energy    TOTEN  =      -486.21827538 eV

  energy without entropy =     -486.18869419  energy(sigma->0) =     -486.20348479


--------------------------------------------------------------------------------------------------------




----------------------------------------- Iteration    1(   9)  ---------------------------------------


    EDDIAG:  cpu time    4.2071: real time    8.4291
  RMM-DIIS:  cpu time    4.8987: real time    9.8571
    ORTHCH:  cpu time    1.9766: real time    3.9502
       DOS:  cpu time    0.0008: real time    0.0009
    --------------------------------------------
      LOOP:  cpu time   11.0837: real time   22.2377

 eigenvalue-minimisations  : 10345
 total energy-change (2. order) :-0.3724581E-06  (-0.3641761E-06)
 number of electron     195.9999579 magnetization 
 augmentation part      195.9999579 magnetization 

 Free energy of the ion-electron system (eV)
  ---------------------------------------------------
  alpha Z        PSCENC =       138.85708194
  Ewald energy   TEWEN  =      9130.28498459
  -Hartree energ DENC   =    -15507.95981469
  -exchange      EXHF   =         0.00000000
  -V(xc)+E(xc)   XCENC  =       707.36475670
  PAW double counting   =      3406.89119115    -3469.63674197
  entropy T*S    EENTRO =        -0.02958120
  eigenvalues    EBANDS =     -2078.27150369
  atomic energy  EATOM  =      7186.28135141
  Solvation  Ediel_sol  =         0.00000000
  ---------------------------------------------------
  free energy    TOTEN  =      -486.21827575 eV

  energy without entropy =     -486.18869456  energy(sigma->0) =     -486.20348516


--------------------------------------------------------------------------------------------------------




 average (electrostatic) potential at core
  the test charge radii are     0.6991
  (the norm of the test charge is              1.0000)
       1 -61.3452       2 -61.0371       3 -61.3453       4 -61.1771       5 -61.1771
       6 -61.3452       7 -61.9532       8 -61.9534       9 -61.3453      10 -61.1942
      11 -61.0883      12 -61.0370      13 -61.9532      14 -61.0371      15 -61.0884
      16 -60.9669      17 -61.0883      18 -61.3452      19 -61.3452      20 -61.0883
      21 -61.0883      22 -61.0884      23 -61.1942      24 -61.1771      25 -61.1942
      26 -61.4061      27 -61.4062      28 -61.2215      29 -61.1799      30 -61.2214
      31 -61.4061      32 -61.4062      33 -61.2090      34 -61.2089      35 -61.1206
      36 -61.4061      37 -61.4061      38 -61.1207      39 -61.0920      40 -61.0920
      41 -61.2089      42 -61.2214      43 -61.2089      44 -61.0920      45 -61.1207
      46 -61.2090      47 -61.1799      48 -61.1799      49 -61.2089
 
 
 
 E-fermi :  -1.6946     XC(G=0):  -4.3486     alpha+bet : -3.8195


 k-point     1 :       0.0000    0.0000    0.0000
  band No.  band energies     occupation 
      1     -20.8829      2.00000
      2     -20.0465      2.00000
      3     -20.0465      2.00000
      4     -19.9790      2.00000
      5     -19.9790      2.00000
      6     -19.9636      2.00000
      7     -19.5125      2.00000
      8     -18.2257      2.00000
      9     -18.1748      2.00000
     10     -18.1748      2.00000
     11     -18.0750      2.00000
     12     -18.0749      2.00000
     13     -17.7677      2.00000
     14     -17.3014      2.00000
     15     -17.3013      2.00000
     16     -17.2459      2.00000
     17     -17.1486      2.00000
     18     -17.1485      2.00000
     19     -16.3589      2.00000
     20     -15.0942      2.00000
     21     -15.0597      2.00000
     22     -15.0596      2.00000
     23     -14.9764      2.00000
     24     -14.9764      2.00000
     25     -14.4989      2.00000
     26     -14.2230      2.00000
     27     -14.2229      2.00000
     28     -14.2207      2.00000
     29     -13.9244      2.00000
     30     -13.9243      2.00000
     31     -13.4432      2.00000
     32     -12.8245      2.00000
     33     -12.8105      2.00000
     34     -12.8104      2.00000
     35     -12.5712      2.00000
     36     -12.5711      2.00000
     37     -11.5655      2.00000
     38     -10.4738      2.00000
     39     -10.4737      2.00000
     40     -10.4654      2.00000
     41     -10.4150      2.00000
     42     -10.4146      2.00000
     43     -10.4110      2.00000
     44     -10.4110      2.00000
     45     -10.3993      2.00000
     46     -10.3993      2.00000
     47      -9.9167      2.00000
     48      -9.9167      2.00000
     49      -9.2457      2.00000
     50      -9.1855      2.00000
     51      -9.0841      2.00000
     52      -9.0825      2.00000
     53      -9.0824      2.00000
     54      -8.6696      2.00000
     55      -8.6694      2.00000
     56      -8.3214      2.00000
     57      -8.1574      2.00000
     58      -8.1574      2.00000
     59      -8.1020      2.00000
     60      -8.1020      2.00000
     61      -8.0962      2.00000
     62      -7.8499      2.00000
     63      -7.7885      2.00000
     64      -7.7882      2.00000
     65      -7.7763      2.00000
     66      -7.7606      2.00000
     67      -7.7603      2.00000
     68      -7.6528      2.00000
     69      -7.6525      2.00000
     70      -7.6514      2.00000
     71      -7.6251      2.00000
     72      -6.7195      2.00000
     73      -6.7193      2.00000
     74      -6.1680      2.00000
     75      -6.1338      2.00000
     76      -6.1054      2.00000
     77      -6.1051      2.00000
     78      -6.0275      2.00000
     79      -5.9729      2.00000
     80      -5.9729      2.00000
     81      -5.9339      2.00000
     82      -5.9339      2.00000
     83      -5.8205      2.00000
     84      -5.6193      2.00000
     85      -5.0930      2.00000
     86      -5.0930      2.00000
     87      -5.0501      2.00000
     88      -5.0252      2.00000
     89      -5.0252      2.00000
     90      -4.9089      2.00000
     91      -4.9082      2.00000
     92      -4.2336      2.00000
     93      -3.0866      2.00000
     94      -3.0737      2.00000
     95      -3.0737      2.00000
     96      -3.0226      2.00000
     97      -3.0225      2.00000
     98      -1.9187      1.99997
     99      -1.5885      0.00988
    100      -1.5881      0.00968
    101      -0.2857      0.00000
    102      -0.2755      0.00000
    103      -0.2754      0.00000
    104      -0.2008      0.00000
    105      -0.2008      0.00000
    106       0.4957      0.00000
    107       1.5854      0.00000
    108       1.5854      0.00000
    109       1.6072      0.00000
    110       1.6690      0.00000
    111       1.6690      0.00000
    112       1.8040      0.00000
    113       2.4228      0.00000
    114       3.0491      0.00000
    115       3.0492      0.00000
    116       3.0497      0.00000
    117       3.0911      0.00000
    118       3.0912      0.00000
    119       3.2283      0.00000
    120       3.3266      0.00000
    121       3.4001      0.00000
    122       3.4810      0.00000
    123       3.7042      0.00000
    124       4.5648      0.00000

 k-point     2 :       0.0167    0.0167    0.0000
  band No.  band energies     occupation 
      1     -20.8822      2.00000
      2     -20.0639      2.00000
      3     -20.0556      2.00000
      4     -19.9885      2.00000
      5     -19.9694      2.00000
      6     -19.9360      2.00000
      7     -19.5095      2.00000
      8     -18.2713      2.00000
      9     -18.1914      2.00000
     10     -18.1509      2.00000
     11     -18.0622      2.00000
     12     -18.0560      2.00000
     13     -17.7590      2.00000
     14     -17.3586      2.00000
     15     -17.3158      2.00000
     16     -17.2070      2.00000
     17     -17.1353      2.00000
     18     -17.1281      2.00000
     19     -16.3543      2.00000
     20     -15.1088      2.00000
     21     -15.0781      2.00000
     22     -15.0716      2.00000
     23     -14.9803      2.00000
     24     -14.9668      2.00000
     25     -14.4961      2.00000
     26     -14.2253      2.00000
     27     -14.2151      2.00000
     28     -14.2023      2.00000
     29     -13.9201      2.00000
     30     -13.9189      2.00000
     31     -13.4398      2.00000
     32     -12.9203      2.00000
     33     -12.8276      2.00000
     34     -12.7356      2.00000
     35     -12.5538      2.00000
     36     -12.5487      2.00000
     37     -11.5603      2.00000
     38     -10.5683      2.00000
     39     -10.5128      2.00000
     40     -10.4913      2.00000
     41     -10.4857      2.00000
     42     -10.4145      2.00000
     43     -10.3962      2.00000
     44     -10.3697      2.00000
     45     -10.3392      2.00000
     46     -10.3143      2.00000
     47      -9.9118      2.00000
     48      -9.9079      2.00000
     49      -9.2674      2.00000
     50      -9.1846      2.00000
     51      -9.1163      2.00000
     52      -9.0620      2.00000
     53      -9.0489      2.00000
     54      -8.6755      2.00000
     55      -8.6590      2.00000
     56      -8.3144      2.00000
     57      -8.1859      2.00000
     58      -8.1719      2.00000
     59      -8.1119      2.00000
     60      -8.0878      2.00000
     61      -8.0566      2.00000
     62      -7.8558      2.00000
     63      -7.8169      2.00000
     64      -7.8021      2.00000
     65      -7.7787      2.00000
     66      -7.7677      2.00000
     67      -7.7619      2.00000
     68      -7.7229      2.00000
     69      -7.6342      2.00000
     70      -7.6208      2.00000
     71      -7.5473      2.00000
     72      -6.7217      2.00000
     73      -6.7215      2.00000
     74      -6.1870      2.00000
     75      -6.1430      2.00000
     76      -6.1072      2.00000
     77      -6.0836      2.00000
     78      -6.0787      2.00000
     79      -6.0075      2.00000
     80      -5.9719      2.00000
     81      -5.8977      2.00000
     82      -5.8888      2.00000
     83      -5.8179      2.00000
     84      -5.6086      2.00000
     85      -5.1567      2.00000
     86      -5.1187      2.00000
     87      -5.0362      2.00000
     88      -5.0002      2.00000
     89      -4.9745      2.00000
     90      -4.9105      2.00000
     91      -4.9099      2.00000
     92      -4.2302      2.00000
     93      -3.1149      2.00000
     94      -3.0923      2.00000
     95      -3.0777      2.00000
     96      -3.0121      2.00000
     97      -2.9962      2.00000
     98      -1.9193      1.99997
     99      -1.5889      0.01007
    100      -1.5887      0.00999
    101      -0.2953      0.00000
    102      -0.2755      0.00000
    103      -0.2705      0.00000
    104      -0.1933      0.00000
    105      -0.1898      0.00000
    106       0.4958      0.00000
    107       1.4884      0.00000
    108       1.5448      0.00000
    109       1.6285      0.00000
    110       1.7067      0.00000
    111       1.7454      0.00000
    112       1.8051      0.00000
    113       2.4258      0.00000
    114       2.9911      0.00000
    115       3.0247      0.00000
    116       3.0751      0.00000
    117       3.0998      0.00000
    118       3.1265      0.00000
    119       3.2477      0.00000
    120       3.2673      0.00000
    121       3.3478      0.00000
    122       3.4819      0.00000
    123       3.4892      0.00000
    124       4.6058      0.00000

 k-point     3 :       0.0333    0.0333    0.0000
  band No.  band energies     occupation 
      1     -20.8800      2.00000
      2     -20.0991      2.00000
      3     -20.0763      2.00000
      4     -19.9910      2.00000
      5     -19.9503      2.00000
      6     -19.8928      2.00000
      7     -19.5004      2.00000
      8     -18.3410      2.00000
      9     -18.2249      2.00000
     10     -18.1490      2.00000
     11     -18.0237      2.00000
     12     -18.0119      2.00000
     13     -17.7345      2.00000
     14     -17.4395      2.00000
     15     -17.3491      2.00000
     16     -17.1859      2.00000
     17     -17.1051      2.00000
     18     -17.0625      2.00000
     19     -16.3407      2.00000
     20     -15.1463      2.00000
     21     -15.1293      2.00000
     22     -15.0993      2.00000
     23     -14.9970      2.00000
     24     -14.9452      2.00000
     25     -14.4899      2.00000
     26     -14.2288      2.00000
     27     -14.1854      2.00000
     28     -14.1610      2.00000
     29     -13.9076      2.00000
     30     -13.9019      2.00000
     31     -13.4306      2.00000
     32     -13.0294      2.00000
     33     -12.8680      2.00000
     34     -12.6914      2.00000
     35     -12.5134      2.00000
     36     -12.4779      2.00000
     37     -11.5451      2.00000
     38     -10.6793      2.00000
     39     -10.5909      2.00000
     40     -10.5642      2.00000
     41     -10.5520      2.00000
     42     -10.4381      2.00000
     43     -10.3532      2.00000
     44     -10.3194      2.00000
     45     -10.2744      2.00000
     46     -10.2068      2.00000
     47      -9.8985      2.00000
     48      -9.8819      2.00000
     49      -9.3130      2.00000
     50      -9.1820      2.00000
     51      -9.1489      2.00000
     52      -9.0333      2.00000
     53      -9.0000      2.00000
     54      -8.6907      2.00000
     55      -8.6289      2.00000
     56      -8.2969      2.00000
     57      -8.2337      2.00000
     58      -8.2010      2.00000
     59      -8.1114      2.00000
     60      -8.0636      2.00000
     61      -8.0023      2.00000
     62      -7.9104      2.00000
     63      -7.8709      2.00000
     64      -7.8334      2.00000
     65      -7.7947      2.00000
     66      -7.7832      2.00000
     67      -7.7528      2.00000
     68      -7.7270      2.00000
     69      -7.6082      2.00000
     70      -7.5941      2.00000
     71      -7.4412      2.00000
     72      -6.7289      2.00000
     73      -6.7270      2.00000
     74      -6.2281      2.00000
     75      -6.1682      2.00000
     76      -6.1466      2.00000
     77      -6.1114      2.00000
     78      -6.0548      2.00000
     79      -6.0399      2.00000
     80      -5.9903      2.00000
     81      -5.8458      2.00000
     82      -5.8154      2.00000
     83      -5.8107      2.00000
     84      -5.5788      2.00000
     85      -5.2407      2.00000
     86      -5.1631      2.00000
     87      -5.0326      2.00000
     88      -4.9587      2.00000
     89      -4.9172      2.00000
     90      -4.9132      2.00000
     91      -4.8912      2.00000
     92      -4.2201      2.00000
     93      -3.1616      2.00000
     94      -3.1322      2.00000
     95      -3.0904      2.00000
     96      -2.9986      2.00000
     97      -2.9521      2.00000
     98      -1.9210      1.99998
     99      -1.5914      0.01142
    100      -1.5893      0.01029
    101      -0.3189      0.00000
    102      -0.2695      0.00000
    103      -0.2584      0.00000
    104      -0.1718      0.00000
    105      -0.1653      0.00000
    106       0.4963      0.00000
    107       1.3735      0.00000
    108       1.4776      0.00000
    109       1.6288      0.00000
    110       1.7621      0.00000
    111       1.8083      0.00000
    112       1.8648      0.00000
    113       2.4350      0.00000
    114       2.9313      0.00000
    115       2.9789      0.00000
    116       3.0804      0.00000
    117       3.1088      0.00000
    118       3.1508      0.00000
    119       3.1911      0.00000
    120       3.2944      0.00000
    121       3.3459      0.00000
    122       3.4829      0.00000
    123       4.5855      0.00000
    124       4.6087      0.00000

 k-point     4 :       0.0500    0.0500    0.0000
  band No.  band energies     occupation 
      1     -20.8763      2.00000
      2     -20.1382      2.00000
      3     -20.1017      2.00000
      4     -19.9888      2.00000
      5     -19.9294      2.00000
      6     -19.8451      2.00000
      7     -19.4856      2.00000
      8     -18.4147      2.00000
      9     -18.2622      2.00000
     10     -18.1678      2.00000
     11     -17.9785      2.00000
     12     -17.9557      2.00000
     13     -17.6981      2.00000
     14     -17.5217      2.00000
     15     -17.3882      2.00000
     16     -17.1776      2.00000
     17     -17.0692      2.00000
     18     -16.9785      2.00000
     19     -16.3185      2.00000
     20     -15.2033      2.00000
     21     -15.1984      2.00000
     22     -15.1349      2.00000
     23     -15.0285      2.00000
     24     -14.9212      2.00000
     25     -14.4843      2.00000
     26     -14.2341      2.00000
     27     -14.1370      2.00000
     28     -14.1032      2.00000
     29     -13.8884      2.00000
     30     -13.8717      2.00000
     31     -13.4181      2.00000
     32     -13.1394      2.00000
     33     -12.9160      2.00000
     34     -12.6724      2.00000
     35     -12.4636      2.00000
     36     -12.3760      2.00000
     37     -11.5202      2.00000
     38     -10.7931      2.00000
     39     -10.6850      2.00000
     40     -10.6354      2.00000
     41     -10.6180      2.00000
     42     -10.4734      2.00000
     43     -10.3286      2.00000
     44     -10.2732      2.00000
     45     -10.2117      2.00000
     46     -10.0980      2.00000
     47      -9.8798      2.00000
     48      -9.8414      2.00000
     49      -9.3623      2.00000
     50      -9.1799      2.00000
     51      -9.1775      2.00000
     52      -9.0140      2.00000
     53      -8.9392      2.00000
     54      -8.7059      2.00000
     55      -8.5826      2.00000
     56      -8.2828      2.00000
     57      -8.2762      2.00000
     58      -8.2340      2.00000
     59      -8.1074      2.00000
     60      -8.0392      2.00000
     61      -8.0225      2.00000
     62      -7.9441      2.00000
     63      -7.8915      2.00000
     64      -7.8674      2.00000
     65      -7.8117      2.00000
     66      -7.8009      2.00000
     67      -7.7408      2.00000
     68      -7.7182      2.00000
     69      -7.5876      2.00000
     70      -7.5467      2.00000
     71      -7.3382      2.00000
     72      -6.7403      2.00000
     73      -6.7349      2.00000
     74      -6.2747      2.00000
     75      -6.2564      2.00000
     76      -6.1545      2.00000
     77      -6.1117      2.00000
     78      -6.1017      2.00000
     79      -6.0183      2.00000
     80      -6.0012      2.00000
     81      -5.7989      2.00000
     82      -5.7914      2.00000
     83      -5.7455      2.00000
     84      -5.5347      2.00000
     85      -5.3253      2.00000
     86      -5.2070      2.00000
     87      -5.0279      2.00000
     88      -4.9284      2.00000
     89      -4.9186      2.00000
     90      -4.9167      2.00000
     91      -4.8069      2.00000
     92      -4.2038      2.00000
     93      -3.2114      2.00000
     94      -3.1827      2.00000
     95      -3.1110      2.00000
     96      -2.9920      2.00000
     97      -2.9059      2.00000
     98      -1.9233      1.99998
     99      -1.5954      0.01393
    100      -1.5902      0.01075
    101      -0.3484      0.00000
    102      -0.2557      0.00000
    103      -0.2399      0.00000
    104      -0.1385      0.00000
    105      -0.1344      0.00000
    106       0.4970      0.00000
    107       1.2598      0.00000
    108       1.4076      0.00000
    109       1.6277      0.00000
    110       1.8126      0.00000
    111       1.8136      0.00000
    112       1.9896      0.00000
    113       2.4519      0.00000
    114       2.8731      0.00000
    115       2.9275      0.00000
    116       3.0005      0.00000
    117       3.0859      0.00000
    118       3.1166      0.00000
    119       3.2595      0.00000
    120       3.3537      0.00000
    121       3.3896      0.00000
    122       3.4947      0.00000
    123       4.5265      0.00000
    124       4.5550      0.00000

 k-point     5 :       0.0667    0.0667    0.0000
  band No.  band energies     occupation 
      1     -20.8712      2.00000
      2     -20.1775      2.00000
      3     -20.1288      2.00000
      4     -19.9841      2.00000
      5     -19.9086      2.00000
      6     -19.7946      2.00000
      7     -19.4653      2.00000
      8     -18.4895      2.00000
      9     -18.2998      2.00000
     10     -18.1949      2.00000
     11     -17.9316      2.00000
     12     -17.8996      2.00000
     13     -17.6557      2.00000
     14     -17.6030      2.00000
     15     -17.4245      2.00000
     16     -17.1708      2.00000
     17     -17.0322      2.00000
     18     -16.8895      2.00000
     19     -16.2884      2.00000
     20     -15.2886      2.00000
     21     -15.2650      2.00000
     22     -15.1736      2.00000
     23     -15.0715      2.00000
     24     -14.8998      2.00000
     25     -14.4814      2.00000
     26     -14.2413      2.00000
     27     -14.0756      2.00000
     28     -14.0350      2.00000
     29     -13.8646      2.00000
     30     -13.8266      2.00000
     31     -13.4078      2.00000
     32     -13.2462      2.00000
     33     -12.9611      2.00000
     34     -12.6620      2.00000
     35     -12.4113      2.00000
     36     -12.2619      2.00000
     37     -11.4869      2.00000
     38     -10.9073      2.00000
     39     -10.7850      2.00000
     40     -10.7123      2.00000
     41     -10.6836      2.00000
     42     -10.5157      2.00000
     43     -10.3214      2.00000
     44     -10.2324      2.00000
     45     -10.1494      2.00000
     46      -9.9925      2.00000
     47      -9.8588      2.00000
     48      -9.7925      2.00000
     49      -9.4045      2.00000
     50      -9.2095      2.00000
     51      -9.1712      2.00000
     52      -9.0020      2.00000
     53      -8.8810      2.00000
     54      -8.7086      2.00000
     55      -8.5253      2.00000
     56      -8.3310      2.00000
     57      -8.2685      2.00000
     58      -8.2603      2.00000
     59      -8.1373      2.00000
     60      -8.1011      2.00000
     61      -8.0160      2.00000
     62      -7.9149      2.00000
     63      -7.8959      2.00000
     64      -7.8835      2.00000
     65      -7.8339      2.00000
     66      -7.8193      2.00000
     67      -7.7293      2.00000
     68      -7.7085      2.00000
     69      -7.5597      2.00000
     70      -7.4968      2.00000
     71      -7.2412      2.00000
     72      -6.7556      2.00000
     73      -6.7433      2.00000
     74      -6.3455      2.00000
     75      -6.3238      2.00000
     76      -6.1723      2.00000
     77      -6.1474      2.00000
     78      -6.1043      2.00000
     79      -6.0515      2.00000
     80      -5.9646      2.00000
     81      -5.7833      2.00000
     82      -5.7355      2.00000
     83      -5.6846      2.00000
     84      -5.4847      2.00000
     85      -5.4101      2.00000
     86      -5.2422      2.00000
     87      -5.0210      2.00000
     88      -4.9438      2.00000
     89      -4.9262      2.00000
     90      -4.8764      2.00000
     91      -4.7236      2.00000
     92      -4.1824      2.00000
     93      -3.2629      2.00000
     94      -3.2412      2.00000
     95      -3.1389      2.00000
     96      -2.9940      2.00000
     97      -2.8604      2.00000
     98      -1.9260      1.99998
     99      -1.6010      0.01836
    100      -1.5915      0.01147
    101      -0.3825      0.00000
    102      -0.2343      0.00000
    103      -0.2156      0.00000
    104      -0.1025      0.00000
    105      -0.0920      0.00000
    106       0.4973      0.00000
    107       1.1487      0.00000
    108       1.3390      0.00000
    109       1.6258      0.00000
    110       1.8210      0.00000
    111       1.8525      0.00000
    112       2.1162      0.00000
    113       2.4709      0.00000
    114       2.8165      0.00000
    115       2.8753      0.00000
    116       2.8766      0.00000
    117       3.0933      0.00000
    118       3.1251      0.00000
    119       3.1480      0.00000
    120       3.3308      0.00000
    121       3.4198      0.00000
    122       3.4985      0.00000
    123       4.4807      0.00000
    124       4.5213      0.00000

 k-point     6 :       0.0833    0.0833    0.0000
  band No.  band energies     occupation 
      1     -20.8646      2.00000
      2     -20.2160      2.00000
      3     -20.1566      2.00000
      4     -19.9776      2.00000
      5     -19.8885      2.00000
      6     -19.7422      2.00000
      7     -19.4400      2.00000
      8     -18.5644      2.00000
      9     -18.3368      2.00000
     10     -18.2256      2.00000
     11     -17.8843      2.00000
     12     -17.8494      2.00000
     13     -17.6832      2.00000
     14     -17.6156      2.00000
     15     -17.4464      2.00000
     16     -17.1635      2.00000
     17     -16.9955      2.00000
     18     -16.7982      2.00000
     19     -16.2512      2.00000
     20     -15.3830      2.00000
     21     -15.3402      2.00000
     22     -15.2135      2.00000
     23     -15.1225      2.00000
     24     -14.8835      2.00000
     25     -14.4801      2.00000
     26     -14.2510      2.00000
     27     -14.0069      2.00000
     28     -13.9612      2.00000
     29     -13.8379      2.00000
     30     -13.7674      2.00000
     31     -13.4180      2.00000
     32     -13.3342      2.00000
     33     -12.9957      2.00000
     34     -12.6540      2.00000
     35     -12.3592      2.00000
     36     -12.1425      2.00000
     37     -11.4467      2.00000
     38     -11.0207      2.00000
     39     -10.8884      2.00000
     40     -10.7968      2.00000
     41     -10.7480      2.00000
     42     -10.5609      2.00000
     43     -10.3280      2.00000
     44     -10.1969      2.00000
     45     -10.0884      2.00000
     46      -9.8969      2.00000
     47      -9.8391      2.00000
     48      -9.7399      2.00000
     49      -9.4295      2.00000
     50      -9.2382      2.00000
     51      -9.1632      2.00000
     52      -8.9957      2.00000
     53      -8.8409      2.00000
     54      -8.6815      2.00000
     55      -8.4649      2.00000
     56      -8.3778      2.00000
     57      -8.3035      2.00000
     58      -8.2587      2.00000
     59      -8.2453      2.00000
     60      -8.0929      2.00000
     61      -7.9941      2.00000
     62      -7.9406      2.00000
     63      -7.9134      2.00000
     64      -7.8638      2.00000
     65      -7.8367      2.00000
     66      -7.8208      2.00000
     67      -7.7189      2.00000
     68      -7.6988      2.00000
     69      -7.5254      2.00000
     70      -7.4459      2.00000
     71      -7.1541      2.00000
     72      -6.7738      2.00000
     73      -6.7486      2.00000
     74      -6.4344      2.00000
     75      -6.3746      2.00000
     76      -6.1980      2.00000
     77      -6.1916      2.00000
     78      -6.0913      2.00000
     79      -6.0875      2.00000
     80      -5.9312      2.00000
     81      -5.7641      2.00000
     82      -5.6782      2.00000
     83      -5.6369      2.00000
     84      -5.4974      2.00000
     85      -5.4402      2.00000
     86      -5.2527      2.00000
     87      -5.0128      2.00000
     88      -4.9630      2.00000
     89      -4.9360      2.00000
     90      -4.8378      2.00000
     91      -4.6415      2.00000
     92      -4.1569      2.00000
     93      -3.3164      2.00000
     94      -3.3062      2.00000
     95      -3.1725      2.00000
     96      -3.0038      2.00000
     97      -2.8161      2.00000
     98      -1.9278      1.99998
     99      -1.6077      0.02561
    100      -1.5933      0.01250
    101      -0.4186      0.00000
    102      -0.2055      0.00000
    103      -0.1860      0.00000
    104      -0.0660      0.00000
    105      -0.0379      0.00000
    106       0.4967      0.00000
    107       1.0401      0.00000
    108       1.2738      0.00000
    109       1.6233      0.00000
    110       1.8305      0.00000
    111       1.8795      0.00000
    112       2.2439      0.00000
    113       2.4897      0.00000
    114       2.7512      0.00000
    115       2.7621      0.00000
    116       2.8238      0.00000
    117       2.9938      0.00000
    118       3.1032      0.00000
    119       3.1356      0.00000
    120       3.4044      0.00000
    121       3.4123      0.00000
    122       3.4913      0.00000
    123       3.5173      0.00000
    124       4.4444      0.00000

 k-point     7 :       0.1000    0.1000    0.0000
  band No.  band energies     occupation 
      1     -20.8566      2.00000
      2     -20.2533      2.00000
      3     -20.1845      2.00000
      4     -19.9693      2.00000
      5     -19.8692      2.00000
      6     -19.6880      2.00000
      7     -19.4104      2.00000
      8     -18.6388      2.00000
      9     -18.3728      2.00000
     10     -18.2582      2.00000
     11     -17.8432      2.00000
     12     -17.8109      2.00000
     13     -17.7534      2.00000
     14     -17.5942      2.00000
     15     -17.4358      2.00000
     16     -17.1551      2.00000
     17     -16.9590      2.00000
     18     -16.7055      2.00000
     19     -16.2081      2.00000
     20     -15.4829      2.00000
     21     -15.4216      2.00000
     22     -15.2539      2.00000
     23     -15.1784      2.00000
     24     -14.8740      2.00000
     25     -14.4781      2.00000
     26     -14.2631      2.00000
     27     -13.9369      2.00000
     28     -13.8857      2.00000
     29     -13.8083      2.00000
     30     -13.6987      2.00000
     31     -13.4881      2.00000
     32     -13.3640      2.00000
     33     -13.0132      2.00000
     34     -12.6463      2.00000
     35     -12.3082      2.00000
     36     -12.0205      2.00000
     37     -11.4028      2.00000
     38     -11.1315      2.00000
     39     -10.9939      2.00000
     40     -10.8881      2.00000
     41     -10.8103      2.00000
     42     -10.6060      2.00000
     43     -10.3447      2.00000
     44     -10.1674      2.00000
     45     -10.0313      2.00000
     46      -9.8432      2.00000
     47      -9.8072      2.00000
     48      -9.6764      2.00000
     49      -9.4288      2.00000
     50      -9.2656      2.00000
     51      -9.1533      2.00000
     52      -8.9937      2.00000
     53      -8.8224      2.00000
     54      -8.6214      2.00000
     55      -8.4375      2.00000
     56      -8.4229      2.00000
     57      -8.3385      2.00000
     58      -8.3253      2.00000
     59      -8.2601      2.00000
     60      -8.0828      2.00000
     61      -7.9734      2.00000
     62      -7.9690      2.00000
     63      -7.9175      2.00000
     64      -7.9008      2.00000
     65      -7.8533      2.00000
     66      -7.7563      2.00000
     67      -7.7096      2.00000
     68      -7.6897      2.00000
     69      -7.4856      2.00000
     70      -7.3954      2.00000
     71      -7.0829      2.00000
     72      -6.7936      2.00000
     73      -6.7449      2.00000
     74      -6.5227      2.00000
     75      -6.4267      2.00000
     76      -6.2344      2.00000
     77      -6.2301      2.00000
     78      -6.1247      2.00000
     79      -6.0741      2.00000
     80      -5.9021      2.00000
     81      -5.7417      2.00000
     82      -5.6217      2.00000
     83      -5.6094      2.00000
     84      -5.5796      2.00000
     85      -5.4185      2.00000
     86      -5.2207      2.00000
     87      -5.0028      2.00000
     88      -4.9858      2.00000
     89      -4.9478      2.00000
     90      -4.8001      2.00000
     91      -4.5607      2.00000
     92      -4.1286      2.00000
     93      -3.3810      2.00000
     94      -3.3685      2.00000
     95      -3.2109      2.00000
     96      -3.0213      2.00000
     97      -2.7740      2.00000
     98      -1.9281      1.99998
     99      -1.6154      0.03739
    100      -1.5954      0.01389
    101      -0.4577      0.00000
    102      -0.1699      0.00000
    103      -0.1525      0.00000
    104      -0.0266      0.00000
    105       0.0248      0.00000
    106       0.4948      0.00000
    107       0.9359      0.00000
    108       1.2148      0.00000
    109       1.6200      0.00000
    110       1.8422      0.00000
    111       1.8926      0.00000
    112       2.3702      0.00000
    113       2.4884      0.00000
    114       2.6734      0.00000
    115       2.7100      0.00000
    116       2.7733      0.00000
    117       2.9076      0.00000
    118       3.1151      0.00000
    119       3.1478      0.00000
    120       3.4797      0.00000
    121       3.4904      0.00000
    122       3.5695      0.00000
    123       3.5550      0.00000
    124       4.3911      0.00000

 k-point     8 :       0.1167    0.1167    0.0000
  band No.  band energies     occupation 
      1     -20.8472      2.00000
      2     -20.2893      2.00000
      3     -20.2121      2.00000
      4     -19.9594      2.00000
      5     -19.8504      2.00000
      6     -19.6321      2.00000
      7     -19.3769      2.00000
      8     -18.7122      2.00000
      9     -18.4075      2.00000
     10     -18.2917      2.00000
     11     -17.8616      2.00000
     12     -17.7985      2.00000
     13     -17.7555      2.00000
     14     -17.5845      2.00000
     15     -17.3910      2.00000
     16     -17.1454      2.00000
     17     -16.9222      2.00000
     18     -16.6117      2.00000
     19     -16.1607      2.00000
     20     -15.5862      2.00000
     21     -15.5066      2.00000
     22     -15.2952      2.00000
     23     -15.2370      2.00000
     24     -14.8721      2.00000
     25     -14.4734      2.00000
     26     -14.2765      2.00000
     27     -13.8769      2.00000
     28     -13.8119      2.00000
     29     -13.7719      2.00000
     30     -13.6390      2.00000
     31     -13.5666      2.00000
     32     -13.3677      2.00000
     33     -13.0112      2.00000
     34     -12.6383      2.00000
     35     -12.2586      2.00000
     36     -11.8970      2.00000
     37     -11.3654      2.00000
     38     -11.2320      2.00000
     39     -11.1009      2.00000
     40     -10.9845      2.00000
     41     -10.8700      2.00000
     42     -10.6493      2.00000
     43     -10.3683      2.00000
     44     -10.1443      2.00000
     45      -9.9849      2.00000
     46      -9.8469      2.00000
     47      -9.7527      2.00000
     48      -9.5936      2.00000
     49      -9.4056      2.00000
     50      -9.2884      2.00000
     51      -9.1417      2.00000
     52      -8.9942      2.00000
     53      -8.8126      2.00000
     54      -8.5433      2.00000
     55      -8.5177      2.00000
     56      -8.4663      2.00000
     57      -8.3731      2.00000
     58      -8.3076      2.00000
     59      -8.2575      2.00000
     60      -8.0705      2.00000
     61      -8.0000      2.00000
     62      -7.9529      2.00000
     63      -7.9447      2.00000
     64      -7.9114      2.00000
     65      -7.8693      2.00000
     66      -7.7012      2.00000
     67      -7.6899      2.00000
     68      -7.6812      2.00000
     69      -7.4411      2.00000
     70      -7.3465      2.00000
     71      -7.0358      2.00000
     72      -6.8132      2.00000
     73      -6.7244      2.00000
     74      -6.6098      2.00000
     75      -6.4796      2.00000
     76      -6.2754      2.00000
     77      -6.2674      2.00000
     78      -6.1625      2.00000
     79      -6.0533      2.00000
     80      -5.8784      2.00000
     81      -5.7160      2.00000
     82      -5.6670      2.00000
     83      -5.6129      2.00000
     84      -5.5574      2.00000
     85      -5.3968      2.00000
     86      -5.1568      2.00000
     87      -5.0116      2.00000
     88      -4.9911      2.00000
     89      -4.9618      2.00000
     90      -4.7624      2.00000
     91      -4.4822      2.00000
     92      -4.0989      2.00000
     93      -3.4576      2.00000
     94      -3.4249      2.00000
     95      -3.2523      2.00000
     96      -3.0460      2.00000
     97      -2.7345      2.00000
     98      -1.9256      1.99998
     99      -1.6238      0.05623
    100      -1.5977      0.01560
    101      -0.4999      0.00000
    102      -0.1285      0.00000
[...]
     41     -11.0026      2.00000
     42     -10.7805      2.00000
     43     -10.4782      2.00000
     44     -10.1647      2.00000
     45     -10.0554      2.00000
     46      -9.7608      2.00000
     47      -9.5523      2.00000
     48      -9.4249      2.00000
     49      -9.1946      2.00000
     50      -9.1609      2.00000
     51      -9.0889      2.00000
     52      -9.0784      2.00000
     53      -8.8659      2.00000
     54      -8.8071      2.00000
     55      -8.6220      2.00000
     56      -8.5021      2.00000
     57      -8.3311      2.00000
     58      -8.2030      2.00000
     59      -8.1675      2.00000
     60      -8.1281      2.00000
     61      -8.0443      2.00000
     62      -8.0042      2.00000
     63      -7.9019      2.00000
     64      -7.8718      2.00000
     65      -7.8621      2.00000
     66      -7.6625      2.00000
     67      -7.6483      2.00000
     68      -7.4077      2.00000
     69      -7.2432      2.00000
     70      -7.2181      2.00000
     71      -7.0699      2.00000
     72      -6.9319      2.00000
     73      -6.8485      2.00000
     74      -6.6897      2.00000
     75      -6.5002      2.00000
     76      -6.4509      2.00000
     77      -6.4233      2.00000
     78      -6.3135      2.00000
     79      -5.9960      2.00000
     80      -5.9381      2.00000
     81      -5.8483      2.00000
     82      -5.7929      2.00000
     83      -5.5932      2.00000
     84      -5.3067      2.00000
     85      -5.2137      2.00000
     86      -5.1332      2.00000
     87      -5.0374      2.00000
     88      -4.9290      2.00000
     89      -4.8554      2.00000
     90      -4.5726      2.00000
     91      -4.1927      2.00000
     92      -4.0047      2.00000
     93      -3.8077      2.00000
     94      -3.6562      2.00000
     95      -3.4267      2.00000
     96      -3.2008      2.00000
     97      -2.6157      2.00000
     98      -1.8683      1.99966
     99      -1.6591      0.28924
    100      -1.6095      0.02795
    101      -0.7006      0.00000
    102       0.0144      0.00000
    103       0.0842      0.00000
    104       0.2061      0.00000
    105       0.4265      0.00000
    106       0.4471      0.00000
    107       0.5055      0.00000
    108       1.0666      0.00000
    109       1.5895      0.00000
    110       1.7321      0.00000
    111       1.9321      0.00000
    112       2.0507      0.00000
    113       2.4183      0.00000
    114       2.4806      0.00000
    115       2.5489      0.00000
    116       2.7715      0.00000
    117       3.0409      0.00000
    118       3.2060      0.00000
    119       3.2393      0.00000
    120       3.6021      0.00000
    121       3.8947      0.00000
    122       3.9686      0.00000
    123       4.1604      0.00000
    124       4.3631      0.00000


--------------------------------------------------------------------------------------------------------


 soft charge-density along one line, spin component           1
         0         1         2         3         4         5         6         7         8         9
 total charge-density along one line
 
 pseudopotential strength for first ion, spin component:           1
 10.669   0.014   0.000   0.000   0.001  -0.000  -0.000  -0.001
  0.014  -0.001  -0.000  -0.000  -0.000  -0.000  -0.000  -0.000
  0.000  -0.000  -4.204  -0.000  -0.001  -0.013  -0.000   0.000
  0.000  -0.000  -0.000  -4.194  -0.000  -0.000  -0.009  -0.000
  0.001  -0.000  -0.001  -0.000  -4.205   0.000  -0.000  -0.013
 -0.000  -0.000  -0.013  -0.000   0.000  -1.092  -0.000  -0.000
 -0.000  -0.000  -0.000  -0.009  -0.000  -0.000  -1.092  -0.000
 -0.001  -0.000   0.000  -0.000  -0.013  -0.000  -0.000  -1.092
 total augmentation occupancy for first ion, spin component:           1
  2.000   0.000   0.000   0.000   0.000   0.000   0.000   0.000
  0.000   0.000   0.000   0.000   0.000   0.000   0.000   0.000
  0.000   0.000   0.667   0.000   0.000   0.000   0.000   0.000
  0.000   0.000   0.000   0.667   0.000   0.000   0.000   0.000
  0.000   0.000   0.000   0.000   0.667   0.000   0.000   0.000
  0.000   0.000   0.000   0.000   0.000   0.000   0.000   0.000
  0.000   0.000   0.000   0.000   0.000   0.000   0.000   0.000
  0.000   0.000   0.000   0.000   0.000   0.000   0.000   0.000


------------------------ aborting loop because EDIFF is reached ----------------------------------------


    CHARGE:  cpu time    1.7989: real time    3.5998
    FORLOC:  cpu time    0.0801: real time    0.1606
    FORNL :  cpu time    2.9986: real time    6.0127
    STRESS:  cpu time    9.0623: real time   18.4677
    FORHAR:  cpu time    0.1198: real time    0.2306
    OFIELD:  cpu time    0.0010: real time    0.0008

  FORCE on cell =-STRESS in cart. coord.  units (eV):
  Direction    XX          YY          ZZ          XY          YZ          ZX
  --------------------------------------------------------------------------------------
  Alpha Z   138.85708   138.85708   138.85708
  Ewald   15617.60799 15617.60799-22104.95500    -0.00000     0.00000     0.00000
  Hartree 15179.35416 15179.35415-14850.74752    -0.00001    -0.00000    -0.00000
  E(xc)    -707.36476  -707.36476  -707.36476     0.00000     0.00000     0.00000
  Local  -33065.40101-33065.40565 34272.46086    -0.00402    -0.00219    -0.00126
  n-local   -93.55223   -93.33324   -85.66466     0.18965    -0.00007    -0.00004
  augment    -6.43305    -6.43153    -6.06257     0.00131     0.00004     0.00002
  Kinetic  2907.70183  2906.35727  3340.26512    -1.16443     0.00021     0.00015
  Fock        0.00000     0.00000     0.00000     0.00000     0.00000     0.00000
  -------------------------------------------------------------------------------------
  Total     -29.79432   -29.79432    -3.21143     0.00000     0.00000     0.00000
  in kB     -36.43370   -36.43370    -3.92707     0.00000     0.00000     0.00000
  external pressure =      -25.60 kB  Pullay stress =        0.00 kB


 VOLUME and BASIS-vectors are now :
 -----------------------------------------------------------------------------
  energy-cutoff  :      400.00
  volume of cell :     1310.21
      direct lattice vectors                 reciprocal lattice vectors
    12.300000000  0.000000000  0.000000000     0.081300813  0.046939046  0.000000000
    -6.150000000 10.652112467  0.000000000     0.000000000  0.093878093  0.000000000
     0.000000000  0.000000000 10.000000000     0.000000000  0.000000000  0.100000000

  length of vectors
    12.300000000 12.300000000 10.000000000     0.093878093  0.093878093  0.100000000


 FORCES acting on ions
    electron-ion (+dipol)            ewald-force                    non-local-force                 convergence-correction
 -----------------------------------------------------------------------------------------------
   -.927E+01 -.978E+01 0.261E-07   0.904E+01 0.103E+02 0.745E-16   0.450E+00 0.496E+00 -.926E-22   -.691E+00 -.907E+00 0.272E-08
   -.179E-03 -.256E+02 0.482E-07   -.129E-10 0.268E+02 0.551E-16   0.000E+00 -.518E+00 0.000E+00   -.222E-03 -.169E+01 -.386E-08
   0.927E+01 -.978E+01 0.603E-07   -.904E+01 0.103E+02 0.840E-16   -.450E+00 0.496E+00 -.794E-22   0.690E+00 -.907E+00 0.538E-10
   0.269E+01 -.155E+01 0.347E-11   -.279E+01 0.161E+01 0.543E-16   -.734E-01 0.424E-01 0.000E+00   0.265E+00 -.153E+00 -.108E-11
   -.269E+01 -.155E+01 0.135E-07   0.279E+01 0.161E+01 0.615E-16   0.734E-01 0.424E-01 -.265E-22   -.266E+00 -.153E+00 0.404E-09
   -.131E+02 -.313E+01 -.342E-07   0.135E+02 0.266E+01 0.986E-17   0.655E+00 0.142E+00 0.159E-21   -.113E+01 -.144E+00 0.407E-08
   -.962E+02 -.555E+02 -.121E-07   0.982E+02 0.567E+02 0.408E-16   -.125E+01 -.724E+00 -.529E-22   -.211E+01 -.122E+01 0.143E-06
   0.962E+02 -.555E+02 0.665E-12   -.982E+02 0.567E+02 0.789E-16   0.125E+01 -.724E+00 -.529E-22   0.211E+01 -.122E+01 0.138E-11
   0.131E+02 -.313E+01 -.603E-07   -.135E+02 0.266E+01 0.601E-16   -.655E+00 0.142E+00 0.794E-22   0.113E+01 -.144E+00 -.560E-10
   -.223E-03 -.702E+00 -.468E-07   0.301E-11 0.622E+00 0.341E-16   0.000E+00 0.186E-01 0.132E-22   -.142E-03 -.333E-01 0.518E-08
   -.445E+01 0.146E+01 -.220E-07   0.466E+01 -.171E+01 0.102E-16   0.169E-02 -.143E+00 -.132E-22   -.384E+00 0.296E+00 0.610E-10
   -.222E+02 0.128E+02 0.214E-11   0.232E+02 -.134E+02 0.287E-17   -.449E+00 0.259E+00 0.000E+00   -.146E+01 0.846E+00 0.358E-11
   -.276E-03 0.111E+03 0.121E-07   -.616E-11 -.113E+03 0.359E-16   -.416E-16 0.145E+01 -.106E-21   -.453E-03 0.244E+01 -.143E-06
   0.222E+02 0.128E+02 -.482E-07   -.232E+02 -.134E+02 -.657E-17   0.449E+00 0.259E+00 -.529E-22   0.146E+01 0.846E+00 0.386E-08
   0.445E+01 0.146E+01 -.347E-07   -.466E+01 -.171E+01 0.209E-16   -.169E-02 -.143E+00 0.529E-22   0.384E+00 0.296E+00 0.246E-09
   -.156E-03 0.899E-04 0.114E-12   -.226E-12 0.139E-10 0.141E-16   0.163E-18 0.108E-18 0.000E+00   -.157E-03 0.909E-04 -.395E-11
   -.349E+01 0.312E+01 0.220E-07   0.381E+01 -.318E+01 0.627E-16   0.125E+00 0.701E-01 0.000E+00   -.448E+00 0.185E+00 -.630E-10
   -.384E+01 0.129E+02 0.342E-07   0.444E+01 -.130E+02 0.538E-16   0.205E+00 -.638E+00 0.529E-22   -.441E+00 0.105E+01 -.407E-08
   0.384E+01 0.129E+02 -.261E-07   -.444E+01 -.130E+02 0.111E-16   -.205E+00 -.638E+00 -.106E-21   0.441E+00 0.105E+01 -.272E-08
   0.349E+01 0.312E+01 -.126E-07   -.381E+01 -.318E+01 0.785E-17   -.125E+00 0.701E-01 0.106E-21   0.448E+00 0.185E+00 0.682E-09
   -.959E+00 -.459E+01 0.126E-07   0.853E+00 0.489E+01 -.114E-17   -.123E+00 0.731E-01 0.000E+00   0.637E-01 -.480E+00 -.693E-09
   0.959E+00 -.459E+01 0.347E-07   -.853E+00 0.489E+01 0.590E-16   0.123E+00 0.731E-01 0.529E-22   -.641E-01 -.480E+00 -.251E-09
   0.608E+00 0.351E+00 0.468E-07   -.539E+00 -.311E+00 0.874E-16   -.161E-01 -.928E-02 -.397E-22   0.287E-01 0.168E-01 -.518E-08
   -.166E-03 0.311E+01 -.135E-07   0.284E-10 -.322E+01 0.705E-16   0.000E+00 -.847E-01 0.529E-22   -.166E-03 0.307E+00 -.414E-09
   -.608E+00 0.351E+00 0.494E-12   0.539E+00 -.311E+00 0.693E-17   0.161E-01 -.928E-02 0.000E+00   -.291E-01 0.168E-01 -.547E-11
   -.170E+02 -.293E+02 0.459E-07   0.183E+02 0.316E+02 -.812E-16   0.614E+00 0.143E+01 0.000E+00   -.618E+00 -.213E+01 0.400E-08
   0.170E+02 -.293E+02 0.234E-07   -.183E+02 0.316E+02 -.371E-16   -.614E+00 0.143E+01 0.265E-22   0.619E+00 -.213E+01 0.141E-07
   0.769E+01 -.444E+01 -.535E-11   -.851E+01 0.491E+01 -.684E-16   -.102E+00 0.588E-01 0.000E+00   0.771E+00 -.445E+00 -.144E-11
   0.161E-03 -.105E+01 0.217E-07   -.219E-10 0.114E+01 -.471E-16   -.163E-18 -.338E-02 -.265E-22   0.331E-03 -.117E+00 0.400E-09
   -.769E+01 -.444E+01 0.345E-07   0.851E+01 0.491E+01 -.678E-16   0.102E+00 0.588E-01 0.000E+00   -.770E+00 -.445E+00 -.912E-09
   -.339E+02 -.103E+00 0.224E-07   0.365E+02 0.290E-10 -.987E-16   0.154E+01 -.183E+00 -.529E-22   -.215E+01 0.529E+00 0.428E-08
   0.339E+02 -.103E+00 -.234E-07   -.365E+02 0.249E-10 -.119E-15   -.154E+01 -.183E+00 0.132E-22   0.215E+01 0.529E+00 -.141E-07
   0.530E+01 0.254E+00 -.170E-08   -.556E+01 0.430E-11 -.961E-16   -.254E+00 -.150E+00 -.106E-21   0.489E+00 0.135E+00 -.927E-09
   -.530E+01 0.254E+00 0.110E-07   0.556E+01 0.239E-10 -.535E-16   0.254E+00 -.150E+00 0.265E-22   -.488E+00 0.135E+00 -.955E-09
   -.740E+01 0.427E+01 -.235E-11   0.851E+01 -.491E+01 -.126E-15   0.582E-01 -.336E-01 0.000E+00   -.686E+00 0.396E+00 0.127E-11
   -.168E+02 0.294E+02 -.224E-07   0.183E+02 -.316E+02 -.665E-16   0.931E+00 -.125E+01 -.529E-22   -.153E+01 0.160E+01 -.427E-08
   0.168E+02 0.294E+02 -.459E-07   -.183E+02 -.316E+02 -.148E-15   -.931E+00 -.125E+01 -.265E-22   0.154E+01 0.160E+01 -.400E-08
   0.740E+01 0.427E+01 -.241E-07   -.851E+01 -.491E+01 -.153E-15   -.582E-01 -.336E-01 0.265E-22   0.687E+00 0.396E+00 -.161E-08
   0.153E-03 0.995E+00 -.114E-07   0.304E-11 -.114E+01 -.123E-15   0.000E+00 -.142E+00 0.000E+00   0.331E-03 0.271E+00 0.411E-09
   -.861E+00 -.497E+00 0.114E-07   0.991E+00 0.572E+00 -.121E-15   0.123E+00 0.708E-01 0.000E+00   -.235E+00 -.136E+00 -.415E-09
   -.287E+01 0.446E+01 -.110E-07   0.278E+01 -.482E+01 -.661E-16   0.257E+00 -.145E+00 0.106E-21   -.361E+00 0.355E+00 0.950E-09
   0.160E-03 0.888E+01 -.345E-07   0.758E-11 -.982E+01 -.688E-16   0.000E+00 -.118E+00 -.132E-22   0.300E-03 0.890E+00 0.908E-09
   0.287E+01 0.446E+01 -.127E-07   -.278E+01 -.482E+01 -.947E-16   -.257E+00 -.145E+00 0.106E-21   0.362E+00 0.355E+00 -.150E-08
   0.862E+00 -.497E+00 0.130E-10   -.991E+00 0.572E+00 -.106E-15   -.123E+00 0.708E-01 -.132E-22   0.235E+00 -.136E+00 -.690E-11
   0.155E-03 -.854E+01 0.242E-07   0.170E-10 0.982E+01 -.811E-16   -.173E-17 0.672E-01 0.529E-22   0.300E-03 -.793E+00 0.160E-08
   0.243E+01 -.471E+01 0.171E-08   -.278E+01 0.482E+01 -.948E-16   0.328E-02 0.295E+00 -.529E-22   0.128E+00 -.491E+00 0.923E-09
   0.911E+00 0.526E+00 -.217E-07   -.991E+00 -.572E+00 -.886E-16   0.293E-02 0.169E-02 -.529E-22   0.101E+00 0.582E-01 -.405E-09
   -.911E+00 0.526E+00 0.148E-10   0.991E+00 -.572E+00 -.623E-16   -.293E-02 0.169E-02 0.000E+00   -.101E+00 0.582E-01 -.744E-11
   -.243E+01 -.471E+01 0.128E-07   0.278E+01 0.482E+01 -.101E-15   -.328E-02 0.295E+00 0.000E+00   -.127E+00 -.491E+00 0.149E-08
 -----------------------------------------------------------------------------------------------
   0.518E-04 -.299E-04 0.153E-09   0.933E-14 -.933E-13 -.118E-14   -.172E-14 0.611E-15 -.926E-22   0.393E-02 -.227E-02 -.976E-10
 
 
 POSITION                                       TOTAL-FORCE (eV/Angst)
 -----------------------------------------------------------------------------------
      0.00000      0.00000      5.00000        -0.463488      0.147476     -0.000000
      2.46000      0.00000      5.00000         0.000000     -1.090335      0.000000
      4.92000      0.00000      5.00000         0.463488      0.147476     -0.000000
      7.38000      0.00000      5.00000         0.093676     -0.054084     -0.000000
      9.84000      0.00000      5.00000        -0.093676     -0.054084     -0.000000
     -1.23000      2.13042      5.00000        -0.104026     -0.475130     -0.000000
      1.23000      2.13042      5.00000        -1.384383     -0.799274      0.000000
      3.69000      2.13042      5.00000         1.384383     -0.799274      0.000000
      6.15000      2.13042      5.00000         0.104026     -0.475130     -0.000000
      8.61000      2.13042      5.00000         0.000000     -0.094563      0.000000
     -2.46000      4.26084      5.00000        -0.174917     -0.089982     -0.000000
      0.00000      4.26084      5.00000        -0.944258      0.545167     -0.000000
      2.46000      4.26084      5.00000         0.000000      1.598548     -0.000000
      4.92000      4.26084      5.00000         0.944258      0.545167     -0.000000
      7.38000      4.26084      5.00000         0.174917     -0.089982     -0.000000
     -3.69000      6.39127      5.00000         0.000000      0.000000     -0.000000
     -1.23000      6.39127      5.00000        -0.009532      0.196474     -0.000000
      1.23000      6.39127      5.00000         0.359461      0.327654      0.000000
      3.69000      6.39127      5.00000        -0.359461      0.327654      0.000000
      6.15000      6.39127      5.00000         0.009532      0.196474     -0.000000
     -4.92000      8.52169      5.00000        -0.165385     -0.106492      0.000000
     -2.46000      8.52169      5.00000         0.165385     -0.106492      0.000000
      0.00000      8.52169      5.00000         0.081894      0.047282      0.000000
      2.46000      8.52169      5.00000         0.000000      0.108168      0.000000
      4.92000      8.52169      5.00000        -0.081894      0.047282     -0.000000
      1.23000      0.71014      5.00000         1.240515      1.662279     -0.000000
      3.69000      0.71014      5.00000        -1.240515      1.662279     -0.000000
      6.15000      0.71014      5.00000        -0.152873      0.088261     -0.000000
      8.61000      0.71014      5.00000         0.000000     -0.027188     -0.000000
     11.07000      0.71014      5.00000         0.152873      0.088261      0.000000
      0.00000      2.84056      5.00000         2.059834      0.243178     -0.000000
      4.92000      2.84056      5.00000        -2.059834      0.243178     -0.000000
      7.38000      2.84056      5.00000        -0.030448      0.238833     -0.000000
      9.84000      2.84056      5.00000         0.030448      0.238833     -0.000000
     -1.23000      4.97099      5.00000         0.484533     -0.279745      0.000000
      1.23000      4.97099      5.00000         0.819318     -1.905457     -0.000000
      3.69000      4.97099      5.00000        -0.819318     -1.905457      0.000000
      6.15000      4.97099      5.00000        -0.484533     -0.279745     -0.000000
      8.61000      4.97099      5.00000         0.000000     -0.020300     -0.000000
     -2.46000      7.10141      5.00000         0.017580      0.010150      0.000000
      0.00000      7.10141      5.00000        -0.191612     -0.145785     -0.000000
      2.46000      7.10141      5.00000         0.000000     -0.176523     -0.000000
      4.92000      7.10141      5.00000         0.191612     -0.145785      0.000000
      7.38000      7.10141      5.00000        -0.017580      0.010150      0.000000
     -3.69000      9.23183      5.00000         0.000000      0.559490     -0.000000
     -1.23000      9.23183      5.00000        -0.222060     -0.093048      0.000000
      1.23000      9.23183      5.00000         0.023546      0.013594     -0.000000
      3.69000      9.23183      5.00000        -0.023546      0.013594     -0.000000
      6.15000      9.23183      5.00000         0.222060     -0.093048      0.000000
 -----------------------------------------------------------------------------------
    total drift:                                0.003977     -0.002296      0.000000


--------------------------------------------------------------------------------------------------------



  FREE ENERGIE OF THE ION-ELECTRON SYSTEM (eV)
  ---------------------------------------------------
  free  energy   TOTEN  =      -486.21827575 eV

  energy  without entropy=     -486.18869456  energy(sigma->0) =     -486.20348516
 


--------------------------------------------------------------------------------------------------------


    POTLOK:  cpu time    0.0623: real time    0.1256


--------------------------------------------------------------------------------------------------------


 stress matrix after NEB project (eV)
    -29.79432      0.00000      0.00000
      0.00000    -29.79432      0.00000
     -0.00000      0.00000     -3.21143
  FORCES: max atom, RMS     2.074138    0.905112
  FORCE total and by dimension    6.335787    2.059834
  Stress total and by dimension   42.257743   29.794325
 writing wavefunctions
     LOOP+:  cpu time  229.8195: real time  461.4636
    4ORBIT:  cpu time    0.0000: real time    0.0000

 total amount of memory used by VASP MPI-rank0   674524. kBytes
=======================================================================

   base      :      30000. kBytes
   nonlr-proj:       5203. kBytes
   fftplans  :      13053. kBytes
   grid      :      24768. kBytes
   one-center:        150. kBytes
   wavefun   :     601350. kBytes
 
  
  
 General timing and accounting informations for this job:
 ========================================================
  
                  Total CPU time used (sec):      245.531
                            User time (sec):      214.192
                          System time (sec):       31.339
                         Elapsed time (sec):      495.357
  
                   Maximum memory used (kb):     1556132.
                   Average memory used (kb):           0.
  
                          Minor page faults:       437732
                          Major page faults:            0
                 Voluntary context switches:        45213
