vasp                                    
           1
    12.300000    0.000000    0.000000
    -6.150000   10.652112    0.000000
     0.000000    0.000000   10.000000
   C 
  49
Direct configuration=     1
   0.00000000  0.00000000  0.50000000
   0.20000000  0.00000000  0.50000000
   0.40000000  0.00000000  0.50000000
   0.60000000  0.00000000  0.50000000
   0.80000000  0.00000000  0.50000000
   0.00000000  0.20000000  0.50000000
   0.20000000  0.20000000  0.50000000
   0.40000000  0.20000000  0.50000000
   0.60000000  0.20000000  0.50000000
   0.80000000  0.20000000  0.50000000
   0.00000000  0.40000000  0.50000000
   0.20000000  0.40000000  0.50000000
   0.40000000  0.40000000  0.50000000
   0.60000000  0.40000000  0.50000000
   0.80000000  0.40000000  0.50000000
   0.00000000  0.60000000  0.50000000
   0.20000000  0.60000000  0.50000000
   0.40000000  0.60000000  0.50000000
   0.60000000  0.60000000  0.50000000
   0.80000000  0.60000000  0.50000000
   0.00000000  0.80000000  0.50000000
   0.20000000  0.80000000  0.50000000
   0.40000000  0.80000000  0.50000000
   0.60000000  0.80000000  0.50000000
   0.80000000  0.80000000  0.50000000
   0.13333333  0.06666667  0.50000000
   0.33333333  0.06666667  0.50000000
   0.53333333  0.06666667  0.50000000
   0.73333333  0.06666667  0.50000000
   0.93333333  0.06666667  0.50000000
   0.13333333  0.26666667  0.50000000
   0.53333333  0.26666667  0.50000000
   0.73333333  0.26666667  0.50000000
   0.93333333  0.26666667  0.50000000
   0.13333333  0.46666667  0.50000000
   0.33333333  0.46666667  0.50000000
   0.53333333  0.46666667  0.50000000
   0.73333333  0.46666667  0.50000000
   0.93333333  0.46666667  0.50000000
   0.13333333  0.66666667  0.50000000
   0.33333333  0.66666667  0.50000000
   0.53333333  0.66666667  0.50000000
   0.73333333  0.66666667  0.50000000
   0.93333333  0.66666667  0.50000000
   0.13333333  0.86666667  0.50000000
   0.33333333  0.86666667  0.50000000
   0.53333333  0.86666667  0.50000000
   0.73333333  0.86666667  0.50000000
   0.93333333  0.86666667  0.50000000
