       N       E                     dE             d eps       ncg     rms          rms(c)
DAV:   1     0.126210295808E+05    0.12621E+05   -0.17446E+05 50656   0.260E+03
DAV:   2     0.226299434136E+04   -0.10358E+05   -0.99134E+04 44784   0.692E+02
DAV:   3    -0.346287830953E+03   -0.26093E+04   -0.24087E+04 51468   0.262E+02
DAV:   4    -0.709709050324E+03   -0.36342E+03   -0.34835E+03 47536   0.109E+02
DAV:   5    -0.726146179768E+03   -0.16437E+02   -0.16379E+02 49168   0.252E+01
RMM:   6    -0.726797421491E+03   -0.65124E+00   -0.65124E+00 60067   0.487E+00
RMM:   7    -0.726850760507E+03   -0.53339E-01   -0.79780E-01 71730   0.125E+00
RMM:   8    -0.726827582275E+03    0.23178E-01   -0.45126E-02 64502   0.549E-01
RMM:   9    -0.726828546713E+03   -0.96444E-03   -0.11679E-02 70945   0.137E-01
RMM:  10    -0.726828416446E+03    0.13027E-03   -0.10411E-03 63801   0.491E-02
RMM:  11    -0.726828427951E+03   -0.11505E-04   -0.30272E-04 59502   0.187E-02
RMM:  12    -0.726828421838E+03    0.61126E-05   -0.31772E-05 46705   0.921E-03
RMM:  13    -0.726828422257E+03   -0.41875E-06   -0.81017E-06 41786   0.513E-03
   1 F= -.72682842E+03 E0= -.72683037E+03  d E =0.582905E-02
