vasp                                    
           1
     7.098036   -4.098053    0.000000
     0.000000    8.196106    0.000000
     0.000000    0.000000   39.418102
   Al   O    Ge
  36  54  16
Direct configuration=     1
   0.00409060  0.33416872  0.35270312
   0.66583128  0.66992188  0.35270312
   0.33007812  0.99590940  0.35270312
   0.00000000  0.00000000  0.38553783
   0.66666667  0.33333333  0.38553783
   0.33333333  0.66666667  0.38553783
   0.33333333  0.33333333  0.39228241
   0.00000000  0.66666667  0.39228241
   0.66666667  0.00000000  0.39228241
   0.00000000  0.33333333  0.43995165
   0.66666667  0.66666667  0.43995165
   0.33333333  0.00000000  0.43995165
   0.00000000  0.00000000  0.45121128
   0.66666667  0.33333333  0.45121128
   0.33333333  0.66666667  0.45121128
   0.33333333  0.33333333  0.49352022
   0.00000000  0.66666667  0.49352022
   0.66666667  0.00000000  0.49352022
   0.00000000  0.33333333  0.50647978
   0.66666667  0.66666667  0.50647978
   0.33333333  0.00000000  0.50647978
   0.00000000  0.00000000  0.54878872
   0.66666667  0.33333333  0.54878872
   0.33333333  0.66666667  0.54878872
   0.33333333  0.33333333  0.56004835
   0.00000000  0.66666667  0.56004835
   0.66666667  0.00000000  0.56004835
   0.00000000  0.33333333  0.60771759
   0.66666667  0.66666667  0.60771759
   0.33333333  0.00000000  0.60771759
   0.00000000  0.00000000  0.61446217
   0.66666667  0.33333333  0.61446217
   0.33333333  0.66666667  0.61446217
   0.33416872  0.33007812  0.64729688
   0.99590940  0.66583128  0.64729688
   0.66992188  0.00409060  0.64729688
   0.21999414  0.12163125  0.36175314
   0.88753862  0.45412957  0.36210441
   0.55334967  0.79137899  0.36247327
   0.23802932  0.44665033  0.36247327
   0.90163711  0.78000586  0.36175314
   0.56659095  0.11246138  0.36210441
   0.54587043  0.43340905  0.36210441
   0.20862101  0.76197068  0.36247327
   0.87836875  0.09836289  0.36175314
   0.77048822  0.22979575  0.41767575
   0.43715489  0.56312908  0.41767575
   0.10382156  0.89646242  0.41767575
   0.10353758  0.20735914  0.41767575
   0.77020425  0.54069247  0.41767575
   0.43687092  0.87402581  0.41767575
   0.45930753  0.22951178  0.41767575
   0.12597419  0.56284511  0.41767575
   0.79264086  0.89617844  0.41767575
   0.89874099  0.12933291  0.47272733
   0.56540765  0.46266624  0.47272733
   0.23207432  0.79599958  0.47272733
   0.89725859  0.43459235  0.47272733
   0.56392526  0.76792568  0.47272733
   0.23059192  0.10125901  0.47272733
   0.20400042  0.43607474  0.47272733
   0.87066709  0.76940808  0.47272733
   0.53733376  0.10274141  0.47272733
   0.12933291  0.23059192  0.52727267
   0.79599958  0.56392526  0.52727267
   0.46266624  0.89725859  0.52727267
   0.43607474  0.23207432  0.52727267
   0.10274141  0.56540765  0.52727267
   0.76940808  0.89874099  0.52727267
   0.43459235  0.53733376  0.52727267
   0.10125901  0.87066709  0.52727267
   0.76792568  0.20400042  0.52727267
   0.89617844  0.10353758  0.58232425
   0.56284511  0.43687092  0.58232425
   0.22951178  0.77020425  0.58232425
   0.20735914  0.10382156  0.58232425
   0.87402581  0.43715489  0.58232425
   0.54069247  0.77048822  0.58232425
   0.22979575  0.45930753  0.58232425
   0.89646242  0.79264086  0.58232425
   0.56312908  0.12597419  0.58232425
   0.79137899  0.23802932  0.63752673
   0.45412957  0.56659095  0.63789559
   0.12163125  0.90163711  0.63824686
   0.09836289  0.21999414  0.63824686
   0.76197068  0.55334967  0.63752673
   0.43340905  0.88753862  0.63789559
   0.11246138  0.54587043  0.63789559
   0.78000586  0.87836875  0.63824686
   0.44665033  0.20862101  0.63752673
   0.00000000  0.00000000  0.70701424
   0.47708487  0.98566408  0.70910839
   0.01433592  0.49142079  0.70910839
   0.50857921  0.52291513  0.70910839
   0.33534063  0.18289043  0.72515065
   0.81710957  0.15245019  0.72515065
   0.33333333  0.66666667  0.73515826
   0.84754981  0.66465937  0.72515065
   0.00000000  0.00000000  0.29298576
   0.52291513  0.01433592  0.29089161
   0.98566408  0.50857921  0.29089161
   0.49142079  0.47708487  0.29089161
   0.66465937  0.81710957  0.27484935
   0.18289043  0.84754981  0.27484935
   0.66666667  0.33333333  0.26484174
   0.15245019  0.33534063  0.27484935
