  51  51   0   0
  0.5138078E+02  0.1230000E-08  0.1230000E-08  0.2000000E-08  0.5000000E-15
  1.000000000000000E-004
  CAR 
                                         
      5.95509147    -33.53560870  301     -3.01740161      1.00000000
    -33.536  0.0000E+00  0.0000E+00
    -33.404  0.0000E+00  0.0000E+00
    -33.272  0.0000E+00  0.0000E+00
    -33.141  0.0000E+00  0.0000E+00
    -33.009  0.0000E+00  0.0000E+00
    -32.877  0.0000E+00  0.0000E+00
    -32.746  0.0000E+00  0.0000E+00
    -32.614  0.0000E+00  0.0000E+00
    -32.483  0.0000E+00  0.0000E+00
    -32.351  0.0000E+00  0.0000E+00
    -32.219  0.0000E+00  0.0000E+00
    -32.088  0.0000E+00  0.0000E+00
    -31.956  0.8373E-08  0.1102E-08
    -31.824  0.1349E+00  0.1776E-01
    -31.693  0.1372E+02  0.1824E+01
    -31.561  0.1338E+01  0.2000E+01
    -31.429  0.2931E-05  0.2000E+01
    -31.298  0.0000E+00  0.2000E+01
    -31.166  0.0000E+00  0.2000E+01
    -31.035  0.0000E+00  0.2000E+01
    -30.903  0.0000E+00  0.2000E+01
    -30.771  0.0000E+00  0.2000E+01
    -30.640  0.0000E+00  0.2000E+01
    -30.508  0.0000E+00  0.2000E+01
    -30.376  0.0000E+00  0.2000E+01
    -30.245  0.0000E+00  0.2000E+01
    -30.113  0.0000E+00  0.2000E+01
    -29.981  0.0000E+00  0.2000E+01
    -29.850  0.0000E+00  0.2000E+01
    -29.718  0.0000E+00  0.2000E+01
    -29.587  0.0000E+00  0.2000E+01
    -29.455  0.0000E+00  0.2000E+01
    -29.323  0.0000E+00  0.2000E+01
    -29.192  0.0000E+00  0.2000E+01
    -29.060  0.0000E+00  0.2000E+01
    -28.928  0.0000E+00  0.2000E+01
    -28.797  0.0000E+00  0.2000E+01
    -28.665  0.0000E+00  0.2000E+01
    -28.533  0.0000E+00  0.2000E+01
    -28.402  0.0000E+00  0.2000E+01
    -28.270  0.0000E+00  0.2000E+01
    -28.139  0.0000E+00  0.2000E+01
    -28.007  0.0000E+00  0.2000E+01
    -27.875  0.0000E+00  0.2000E+01
    -27.744  0.0000E+00  0.2000E+01
    -27.612  0.0000E+00  0.2000E+01
    -27.480  0.0000E+00  0.2000E+01
    -27.349  0.0000E+00  0.2000E+01
    -27.217  0.0000E+00  0.2000E+01
    -27.085  0.0000E+00  0.2000E+01
    -26.954  0.0000E+00  0.2000E+01
    -26.822  0.0000E+00  0.2000E+01
    -26.691  0.0000E+00  0.2000E+01
    -26.559  0.0000E+00  0.2000E+01
    -26.427  0.0000E+00  0.2000E+01
    -26.296  0.0000E+00  0.2000E+01
    -26.164  0.0000E+00  0.2000E+01
    -26.032  0.0000E+00  0.2000E+01
    -25.901  0.0000E+00  0.2000E+01
    -25.769  0.0000E+00  0.2000E+01
    -25.637  0.0000E+00  0.2000E+01
    -25.506  0.0000E+00  0.2000E+01
    -25.374  0.0000E+00  0.2000E+01
    -25.243  0.0000E+00  0.2000E+01
    -25.111  0.0000E+00  0.2000E+01
    -24.979  0.0000E+00  0.2000E+01
    -24.848  0.0000E+00  0.2000E+01
    -24.716  0.0000E+00  0.2000E+01
    -24.584  0.0000E+00  0.2000E+01
    -24.453  0.0000E+00  0.2000E+01
    -24.321  0.0000E+00  0.2000E+01
    -24.189  0.0000E+00  0.2000E+01
    -24.058  0.0000E+00  0.2000E+01
    -23.926  0.0000E+00  0.2000E+01
    -23.795  0.0000E+00  0.2000E+01
    -23.663  0.0000E+00  0.2000E+01
    -23.531  0.0000E+00  0.2000E+01
    -23.400  0.0000E+00  0.2000E+01
    -23.268  0.0000E+00  0.2000E+01
    -23.136  0.0000E+00  0.2000E+01
    -23.005  0.0000E+00  0.2000E+01
    -22.873  0.0000E+00  0.2000E+01
    -22.741  0.0000E+00  0.2000E+01
    -22.610  0.0000E+00  0.2000E+01
    -22.478  0.4059E-08  0.2000E+01
    -22.347  0.2801E-01  0.2004E+01
    -22.215  0.3928E+01  0.2521E+01
    -22.083  0.9490E+01  0.3770E+01
    -21.952  0.5035E+01  0.4433E+01
    -21.820  0.1042E+02  0.5805E+01
    -21.688  0.5430E+01  0.6520E+01
    -21.557  0.8094E+01  0.7585E+01
    -21.425  0.1218E+02  0.9188E+01
    -21.293  0.6160E+01  0.9999E+01
    -21.162  0.3361E+01  0.1044E+02
    -21.030  0.8999E+01  0.1163E+02
    -20.899  0.1052E+02  0.1301E+02
    -20.767  0.1054E+02  0.1440E+02
    -20.635  0.8745E+01  0.1555E+02
    -20.504  0.1567E+00  0.1557E+02
    -20.372  0.1271E+02  0.1724E+02
    -20.240  0.4315E+01  0.1781E+02
    -20.109  0.1828E+02  0.2022E+02
    -19.977  0.1741E+01  0.2045E+02
    -19.845  0.3235E+01  0.2087E+02
    -19.714  0.1352E+02  0.2265E+02
    -19.582  0.8782E+01  0.2381E+02
    -19.451  0.6514E+01  0.2466E+02
    -19.319  0.6108E+01  0.2547E+02
    -19.187  0.1451E+02  0.2738E+02
    -19.056  0.7114E+01  0.2832E+02
    -18.924  0.5241E+01  0.2901E+02
    -18.792  0.5302E+01  0.2970E+02
    -18.661  0.4636E+01  0.3031E+02
    -18.529  0.1436E+02  0.3220E+02
    -18.398  0.1108E+02  0.3366E+02
    -18.266  0.9206E+01  0.3487E+02
    -18.134  0.3982E+01  0.3540E+02
    -18.003  0.1601E+02  0.3751E+02
    -17.871  0.4770E+01  0.3813E+02
    -17.739  0.3913E+01  0.3865E+02
    -17.608  0.4842E+01  0.3929E+02
    -17.476  0.1621E+02  0.4142E+02
    -17.344  0.4137E+01  0.4197E+02
    -17.213  0.2168E+02  0.4482E+02
    -17.081  0.6926E+01  0.4573E+02
    -16.950  0.3689E+01  0.4622E+02
    -16.818  0.8451E+01  0.4733E+02
    -16.686  0.3925E+01  0.4785E+02
    -16.555  0.9211E+01  0.4906E+02
    -16.423  0.8757E+01  0.5021E+02
    -16.291  0.3210E+01  0.5063E+02
    -16.160  0.8843E+01  0.5180E+02
    -16.028  0.5895E+01  0.5257E+02
    -15.896  0.1329E+02  0.5432E+02
    -15.765  0.1228E+02  0.5594E+02
    -15.633  0.1992E+01  0.5620E+02
    -15.502  0.4068E+01  0.5674E+02
    -15.370  0.3058E+01  0.5714E+02
    -15.238  0.9881E+01  0.5844E+02
    -15.107  0.2156E+02  0.6128E+02
    -14.975  0.5334E+01  0.6198E+02
    -14.843  0.1117E+02  0.6345E+02
    -14.712  0.1087E+02  0.6488E+02
    -14.580  0.6477E+01  0.6574E+02
    -14.448  0.1437E+02  0.6763E+02
    -14.317  0.6200E+01  0.6844E+02
    -14.185  0.7396E+00  0.6854E+02
    -14.054  0.4332E+01  0.6911E+02
    -13.922  0.9003E+01  0.7030E+02
    -13.790  0.1586E+02  0.7239E+02
    -13.659  0.1958E+02  0.7496E+02
    -13.527  0.1744E+01  0.7519E+02
    -13.395  0.2748E+01  0.7555E+02
    -13.264  0.2938E+00  0.7559E+02
    -13.132  0.1067E+02  0.7700E+02
    -13.000  0.1383E+02  0.7882E+02
    -12.869  0.2059E+02  0.8153E+02
    -12.737  0.1895E+01  0.8178E+02
    -12.606  0.3481E+01  0.8224E+02
    -12.474  0.1843E+02  0.8466E+02
    -12.342  0.1099E+02  0.8611E+02
    -12.211  0.3872E+01  0.8662E+02
    -12.079  0.2482E+01  0.8695E+02
    -11.947  0.1289E+02  0.8864E+02
    -11.816  0.2934E+01  0.8903E+02
    -11.684  0.1492E+02  0.9099E+02
    -11.552  0.1862E+02  0.9344E+02
    -11.421  0.1377E+02  0.9526E+02
    -11.289  0.8165E+01  0.9633E+02
    -11.158  0.5834E+01  0.9710E+02
    -11.026  0.8522E+01  0.9822E+02
    -10.894  0.1126E+02  0.9970E+02
    -10.763  0.1843E+02  0.1021E+03
    -10.631  0.1699E+01  0.1024E+03
    -10.499  0.2023E+02  0.1050E+03
    -10.368  0.4481E+01  0.1056E+03
    -10.236  0.2222E+02  0.1085E+03
    -10.104  0.2669E+02  0.1120E+03
     -9.973  0.1954E+02  0.1146E+03
     -9.841  0.1299E+02  0.1163E+03
     -9.710  0.1836E+02  0.1187E+03
     -9.578  0.2593E+02  0.1222E+03
     -9.446  0.2280E+02  0.1252E+03
     -9.315  0.2596E+02  0.1286E+03
     -9.183  0.2404E+02  0.1317E+03
     -9.051  0.2808E+02  0.1354E+03
     -8.920  0.2032E+02  0.1381E+03
     -8.788  0.1944E+02  0.1407E+03
     -8.656  0.2090E+02  0.1434E+03
     -8.525  0.1893E+02  0.1459E+03
     -8.393  0.1607E+02  0.1480E+03
     -8.262  0.1572E+02  0.1501E+03
     -8.130  0.1458E+02  0.1520E+03
     -7.998  0.2954E+02  0.1559E+03
     -7.867  0.1624E+02  0.1580E+03
     -7.735  0.1795E+02  0.1604E+03
     -7.603  0.7191E+01  0.1614E+03
     -7.472  0.3234E+01  0.1618E+03
     -7.340  0.1424E+02  0.1637E+03
     -7.208  0.3314E+02  0.1680E+03
     -7.077  0.1813E+02  0.1704E+03
     -6.945  0.3128E+01  0.1708E+03
     -6.814  0.2035E+02  0.1735E+03
     -6.682  0.1159E+02  0.1750E+03
     -6.550  0.1663E+02  0.1772E+03
     -6.419  0.7529E+01  0.1782E+03
     -6.287  0.1179E+02  0.1798E+03
     -6.155  0.1537E+02  0.1818E+03
     -6.024  0.1443E+02  0.1837E+03
     -5.892  0.1848E+02  0.1861E+03
     -5.760  0.8680E+01  0.1872E+03
     -5.629  0.1375E+02  0.1891E+03
     -5.497  0.4194E+01  0.1896E+03
     -5.366  0.7295E+01  0.1906E+03
     -5.234  0.9354E+01  0.1918E+03
     -5.102  0.1042E+02  0.1932E+03
     -4.971  0.1677E+02  0.1954E+03
     -4.839  0.1817E+02  0.1978E+03
     -4.707  0.3227E+01  0.1982E+03
     -4.576  0.1861E+00  0.1982E+03
     -4.444  0.6158E-05  0.1982E+03
     -4.312  0.1695E+01  0.1984E+03
     -4.181  0.1713E+02  0.2007E+03
     -4.049  0.6489E+01  0.2016E+03
     -3.918  0.3583E-02  0.2016E+03
     -3.786  0.2242E+00  0.2016E+03
     -3.654  0.3108E+01  0.2020E+03
     -3.523  0.1627E+00  0.2020E+03
     -3.391  0.3799E+01  0.2025E+03
     -3.259  0.1223E+02  0.2041E+03
     -3.128  0.1020E+02  0.2055E+03
     -2.996  0.4061E+01  0.2060E+03
     -2.864  0.1994E+01  0.2063E+03
     -2.733  0.9582E+01  0.2075E+03
     -2.601  0.2212E+00  0.2076E+03
     -2.470  0.3406E-01  0.2076E+03
     -2.338  0.3072E+01  0.2080E+03
     -2.206  0.2618E+01  0.2083E+03
     -2.075  0.1028E+01  0.2084E+03
     -1.943  0.3866E-04  0.2084E+03
     -1.811  0.2512E-08  0.2084E+03
     -1.680  0.6340E-01  0.2085E+03
     -1.548  0.8982E+01  0.2096E+03
     -1.417  0.1146E+02  0.2111E+03
     -1.285  0.4819E+01  0.2118E+03
     -1.153  0.4373E-03  0.2118E+03
     -1.022  0.6815E+00  0.2119E+03
     -0.890  0.8939E+01  0.2130E+03
     -0.758  0.2437E+02  0.2163E+03
     -0.627  0.1872E+02  0.2187E+03
     -0.495  0.5859E+01  0.2195E+03
     -0.363  0.5223E+00  0.2196E+03
     -0.232  0.3733E+01  0.2200E+03
     -0.100  0.1107E+02  0.2215E+03
      0.031  0.1076E+02  0.2229E+03
      0.163  0.1488E+01  0.2231E+03
      0.295  0.1393E+02  0.2250E+03
      0.426  0.9175E+01  0.2262E+03
      0.558  0.3341E+01  0.2266E+03
      0.690  0.8777E+01  0.2278E+03
      0.821  0.1893E+02  0.2302E+03
      0.953  0.5981E+01  0.2310E+03
      1.085  0.9886E+01  0.2323E+03
      1.216  0.1649E+02  0.2345E+03
      1.348  0.7030E+01  0.2354E+03
      1.479  0.1503E+02  0.2374E+03
      1.611  0.2293E+02  0.2404E+03
      1.743  0.1607E+02  0.2425E+03
      1.874  0.2751E+02  0.2462E+03
      2.006  0.8747E+01  0.2473E+03
      2.138  0.1570E+02  0.2494E+03
      2.269  0.2507E+02  0.2527E+03
      2.401  0.2894E+02  0.2565E+03
      2.533  0.9768E+01  0.2578E+03
      2.664  0.5966E+01  0.2586E+03
      2.796  0.9004E+01  0.2597E+03
      2.927  0.5383E+01  0.2605E+03
      3.059  0.8728E+01  0.2616E+03
      3.191  0.2659E+01  0.2620E+03
      3.322  0.5307E+01  0.2627E+03
      3.454  0.9424E-01  0.2627E+03
      3.586  0.1650E+01  0.2629E+03
      3.717  0.5084E+01  0.2636E+03
      3.849  0.1842E-01  0.2636E+03
      3.981  0.6474E-06  0.2636E+03
      4.112  0.2967E+00  0.2636E+03
      4.244  0.3050E+01  0.2640E+03
      4.375  0.3008E-01  0.2640E+03
      4.507  0.1876E-08  0.2640E+03
      4.639  0.0000E+00  0.2640E+03
      4.770  0.0000E+00  0.2640E+03
      4.902  0.0000E+00  0.2640E+03
      5.034  0.0000E+00  0.2640E+03
      5.165  0.0000E+00  0.2640E+03
      5.297  0.0000E+00  0.2640E+03
      5.429  0.0000E+00  0.2640E+03
      5.560  0.0000E+00  0.2640E+03
      5.692  0.0000E+00  0.2640E+03
      5.823  0.0000E+00  0.2640E+03
      5.955  0.0000E+00  0.2640E+03
