Automatically generated mesh
       9
Reciprocal lattice
    0.00000000000000    0.00000000000000    0.00000000000000             1
    0.14285714285714    0.00000000000000    0.00000000000000             6
    0.28571428571429    0.00000000000000    0.00000000000000             6
    0.42857142857143    0.00000000000000    0.00000000000000             6
    0.14285714285714    0.14285714285714    0.00000000000000             6
    0.28571428571429    0.14285714285714    0.00000000000000             6
    0.42857142857143    0.14285714285714    0.00000000000000             6
   -0.42857142857143    0.14285714285714    0.00000000000000             6
    0.28571428571429    0.28571428571429    0.00000000000000             6
