       N       E                     dE             d eps       ncg     rms          rms(c)
DAV:   1     0.141186032853E+05    0.14119E+05   -0.17901E+05  8696   0.258E+03
DAV:   2     0.241001862334E+04   -0.11709E+05   -0.11178E+05  8384   0.695E+02
DAV:   3    -0.481070271016E+03   -0.28911E+04   -0.27757E+04  8824   0.289E+02
DAV:   4    -0.818161222567E+03   -0.33709E+03   -0.33389E+03  9296   0.115E+02
DAV:   5    -0.833315897330E+03   -0.15155E+02   -0.15083E+02  9120   0.256E+01    0.573E+01
RMM:   6    -0.734440012218E+03    0.98876E+02   -0.38817E+02 10638   0.247E+01    0.151E+01
RMM:   7    -0.732022236406E+03    0.24178E+01   -0.16358E+01 10644   0.538E+00    0.103E+01
RMM:   8    -0.731315518625E+03    0.70672E+00   -0.48374E+00 10837   0.371E+00    0.197E+00
RMM:   9    -0.731256168977E+03    0.59350E-01   -0.67146E-01 10970   0.116E+00    0.748E-01
RMM:  10    -0.731261432103E+03   -0.52631E-02   -0.13284E-01 10643   0.551E-01    0.463E-01
RMM:  11    -0.731256317159E+03    0.51149E-02   -0.19859E-02 10820   0.210E-01    0.110E-01
RMM:  12    -0.731255007284E+03    0.13099E-02   -0.53770E-03 10849   0.114E-01    0.749E-02
RMM:  13    -0.731254068115E+03    0.93917E-03   -0.14701E-03 10646   0.536E-02    0.209E-02
RMM:  14    -0.731253815593E+03    0.25252E-03   -0.16520E-04 10839   0.223E-02    0.101E-02
RMM:  15    -0.731253833310E+03   -0.17718E-04   -0.60588E-05  9671   0.895E-03    0.399E-03
RMM:  16    -0.731253900718E+03   -0.67407E-04   -0.23823E-05  8275   0.515E-03    0.276E-03
RMM:  17    -0.731253994052E+03   -0.93334E-04   -0.45633E-05  8313   0.497E-03    0.272E-03
RMM:  18    -0.731254033389E+03   -0.39337E-04   -0.33318E-05  7048   0.348E-03    0.820E-04
RMM:  19    -0.731254042703E+03   -0.93137E-05   -0.11633E-05  6470   0.279E-03    0.106E-03
RMM:  20    -0.731254045406E+03   -0.27034E-05   -0.36162E-06  6153   0.256E-03    0.472E-04
RMM:  21    -0.731254045105E+03    0.30160E-06   -0.46685E-07  5971   0.247E-03
   1 F= -.73125405E+03 E0= -.73125456E+03  d E =0.153169E-02
