 vasp.5.4.4.18Apr17-6-g9f103f2a35 (build Aug 02 2018 15:13:56) complex          
  
 executed on             LinuxIFC date 2020.05.31  16:14:58
 running on    4 total cores
 distrk:  each k-point on    4 cores,    1 groups
 distr:  one band on NCORES_PER_BAND=   1 cores,    4 groups


--------------------------------------------------------------------------------------------------------


 INCAR:
 POTCAR:    PAW Al                                
 POTCAR:    PAW O                                 
 POTCAR:    PAW Ge                                

 ----------------------------------------------------------------------------- 
|                                                                             |
|  ADVICE TO THIS USER RUNNING 'VASP/VAMP'   (HEAR YOUR MASTER'S VOICE ...):  |
|                                                                             |
|      You have switched on vdW-DFT.                                          |
|      This routine was written and supplied by Jiri Klimes.                  |
|      We recommed that you carefully read and cite the following             |
|      publication                                                            |
|      J. Klimes, D.R. Bowler, A. Michelides                                  |
|        J. Phys.: Cond Matt. 22 022201 (2010)                                |
|      J. Klimes, D.R. Bowler, A. Michelides                                  |
|        Phys. Rev. B. 83, 195131 (2011)                                      |
|      and references therein.                                                |
|                                                                             |
 ----------------------------------------------------------------------------- 

 POTCAR:    PAW Al                                
   VRHFIN =Al: s2p1                                                             
   LEXCH  = CA                                                                  
   EATOM  =    53.7936 eV,    3.9537 Ry                                         
                                                                                
   TITEL  = PAW Al                                                              
   LULTRA =        F    use ultrasoft PP ?                                      
   IUNSCR =        1    unscreen: 0-lin 1-nonlin 2-no                           
   RPACOR =    1.500    partial core radius                                     
   POMASS =   26.982; ZVAL   =    3.000    mass and valenz                      
   RCORE  =    1.900    outmost cutoff radius                                   
   RWIGS  =    2.650; RWIGS  =    1.402    wigner-seitz radius (au A)           
   ENMAX  =  240.957; ENMIN  =  180.718 eV                                      
   ICORE  =        2    local potential                                         
   LCOR   =        T    correct aug charges                                     
   LPAW   =        T    paw PP                                                  
   EAUG   =  291.052                                                            
   DEXC   =    -.032                                                            
   RMAX   =    2.970    core radius for proj-oper                               
   RAUG   =    1.300    factor for augmentation sphere                          
   RDEP   =    1.966    core radius for depl-charge                             
   QCUT   =   -4.208; QGAM   =    8.417    optimization parameters              
                                                                                
   Description                                                                  
     l     E      TYP  RCUT    TYP  RCUT                                        
     0   .000     23  1.900                                                     
     0   .000     23  1.900                                                     
     1   .000     23  1.900                                                     
     1  1.000     23  1.900                                                     
     2   .000      7  1.900                                                     
  local pseudopotential read in
  partial core-charges read in
  atomic valenz-charges read in
  non local Contribution for L=           0  read in
    real space projection operators read in
  non local Contribution for L=           0  read in
    real space projection operators read in
  non local Contribution for L=           1  read in
    real space projection operators read in
  non local Contribution for L=           1  read in
    real space projection operators read in
    PAW grid and wavefunctions read in
 
   number of l-projection  operators is LMAX  =           4
   number of lm-projection operators is LMMAX =           8
 
 POTCAR:    PAW O                                 
   VRHFIN =O: s2p4                                                              
   LEXCH  = CA                                                                  
   EATOM  =   431.4447 eV,   31.7103 Ry                                         
                                                                                
   TITEL  = PAW O                                                               
   LULTRA =        F    use ultrasoft PP ?                                      
   IUNSCR =        0    unscreen: 0-lin 1-nonlin 2-no                           
   RPACOR =     .000    partial core radius                                     
   POMASS =   16.000; ZVAL   =    6.000    mass and valenz                      
   RCORE  =    1.520    outmost cutoff radius                                   
   RWIGS  =    1.550; RWIGS  =     .820    wigner-seitz radius (au A)           
   ENMAX  =  400.000; ENMIN  =  300.000 eV                                      
   ICORE  =        2    local potential                                         
   LCOR   =        T    correct aug charges                                     
   LPAW   =        T    paw PP                                                  
   EAUG   =  605.392                                                            
   DEXC   =     .000                                                            
   RMAX   =    2.265    core radius for proj-oper                               
   RAUG   =    1.300    factor for augmentation sphere                          
   RDEP   =    1.550    radius for radial grids                                 
   QCUT   =   -5.518; QGAM   =   11.037    optimization parameters              
                                                                                
   Description                                                                  
     l     E      TYP  RCUT    TYP  RCUT                                        
     0   .000     23  1.200                                                     
     0  -.700     23  1.200                                                     
     1   .000     23  1.520                                                     
     1   .600     23  1.520                                                     
     2   .000      7  1.500                                                     
  local pseudopotential read in
  atomic valenz-charges read in
  non local Contribution for L=           0  read in
    real space projection operators read in
  non local Contribution for L=           0  read in
    real space projection operators read in
  non local Contribution for L=           1  read in
    real space projection operators read in
  non local Contribution for L=           1  read in
    real space projection operators read in
    PAW grid and wavefunctions read in
 
   number of l-projection  operators is LMAX  =           4
   number of lm-projection operators is LMMAX =           8
 
 POTCAR:    PAW Ge                                
   VRHFIN =Ge: 3d4s4p                                                           
   LEXCH  = CA                                                                  
   EATOM  =  2602.3767 eV,  191.2693 Ry                                         
                                                                                
   TITEL  = PAW Ge                                                              
   LULTRA =        F    use ultrasoft PP ?                                      
   IUNSCR =        1    unscreen: 0-lin 1-nonlin 2-no                           
   RPACOR =    2.000    partial core radius                                     
   POMASS =   72.610; ZVAL   =   14.000    mass and valenz                      
   RCORE  =    2.300    outmost cutoff radius                                   
   RWIGS  =    2.300; RWIGS  =    1.217    wigner-seitz radius (au A)           
   ENMAX  =  287.700; ENMIN  =  215.775 eV                                      
   ICORE  =        3    local potential                                         
   LCOR   =        T    correct aug charges                                     
   LPAW   =        T    paw PP                                                  
   EAUG   =  531.356                                                            
   DEXC   =     .000                                                            
   RMAX   =    2.718    core radius for proj-oper                               
   RAUG   =    1.300    factor for augmentation sphere                          
   RDEP   =    2.318    core radius for depl-charge                             
   QCUT   =   -4.598; QGAM   =    9.197    optimization parameters              
                                                                                
   Description                                                                  
     l     E      TYP  RCUT    TYP  RCUT                                        
     2   .000     23  2.300                                                     
     2  -.100     23  2.300                                                     
     0   .000     23  2.300                                                     
     0   .000     23  2.300                                                     
     1   .000     23  2.300                                                     
     1   .000     23  2.300                                                     
     3  -.100      7  2.300                                                     
  local pseudopotential read in
  partial core-charges read in
  atomic valenz-charges read in
  non local Contribution for L=           2  read in
    real space projection operators read in
  non local Contribution for L=           2  read in
    real space projection operators read in
  non local Contribution for L=           0  read in
    real space projection operators read in
  non local Contribution for L=           0  read in
    real space projection operators read in
  non local Contribution for L=           1  read in
    real space projection operators read in
  non local Contribution for L=           1  read in
    real space projection operators read in
    PAW grid and wavefunctions read in
 
   number of l-projection  operators is LMAX  =           6
   number of lm-projection operators is LMMAX =          18
 
 Optimization of the real space projectors (new method)

 maximal supplied QI-value         = 19.84
 optimisation between [QCUT,QGAM] = [ 10.12, 20.44] = [ 28.68,116.96] Ry 
 Optimized for a Real-space Cutoff    1.38 Angstroem

   l    n(q)    QCUT    max X(q) W(low)/X(q) W(high)/X(q)  e(spline) 
   0      8    10.119    12.940    0.17E-04    0.89E-05    0.63E-08
   0      8    10.119   138.101    0.42E-04    0.10E-03    0.51E-07
   1      8    10.119     9.250    0.25E-04    0.53E-05    0.19E-07
   1      8    10.119    50.313    0.20E-03    0.15E-03    0.18E-06
 Optimization of the real space projectors (new method)

 maximal supplied QI-value         = 24.76
 optimisation between [QCUT,QGAM] = [ 10.15, 20.30] = [ 28.85,115.39] Ry 
 Optimized for a Real-space Cutoff    1.51 Angstroem

   l    n(q)    QCUT    max X(q) W(low)/X(q) W(high)/X(q)  e(spline) 
   0      9    10.150     4.112    0.30E-04    0.13E-04    0.12E-06
   0      9    10.150     8.789    0.18E-03    0.20E-03    0.43E-06
   1      9    10.150     2.496    0.31E-04    0.31E-04    0.58E-07
   1      9    10.150     3.859    0.13E-03    0.16E-03    0.34E-06
 Optimization of the real space projectors (new method)

 maximal supplied QI-value         = 16.25
 optimisation between [QCUT,QGAM] = [ 10.24, 20.48] = [ 29.35,117.42] Ry 
 Optimized for a Real-space Cutoff    1.42 Angstroem

   l    n(q)    QCUT    max X(q) W(low)/X(q) W(high)/X(q)  e(spline) 
   2      8    10.239     7.544    0.74E-05    0.57E-04    0.35E-07
   2      8    10.239    11.962    0.38E-04    0.17E-03    0.13E-06
   0      9    10.239     8.430    0.22E-04    0.90E-05    0.15E-07
   0      9    10.239    33.187    0.47E-04    0.90E-04    0.65E-07
   1      8    10.239     5.816    0.26E-04    0.62E-05    0.45E-07
   1      8    10.239    27.463    0.20E-03    0.20E-03    0.73E-07

 ----------------------------------------------------------------------------- 
|                                                                             |
|  ADVICE TO THIS USER RUNNING 'VASP/VAMP'   (HEAR YOUR MASTER'S VOICE ...):  |
|                                                                             |
|      You enforced a specific xc-type in the INCAR file,                     |
|      a different type was found on the POTCAR file                          |
|          I HOPE YOU KNOW, WHAT YOU ARE  DOING                               |
|                                                                             |
 ----------------------------------------------------------------------------- 

  PAW Al                                :
 energy of atom  1       EATOM=  -53.7936
 kinetic energy error for atom=    0.0006 (will be added to EATOM!!)
  PAW O                                 :
 energy of atom  2       EATOM= -431.4447
 kinetic energy error for atom=    0.1130 (will be added to EATOM!!)
  PAW Ge                                :
 energy of atom  3       EATOM=-2602.3767
 kinetic energy error for atom=    0.0088 (will be added to EATOM!!)
 
 
 POSCAR: Ge_2+Al2O3_rt3                          
  positions in direct lattice
  velocities in cartesian coordinates
 exchange correlation table for  LEXCH =       41
   RHO(1)=    0.500       N(1)  =     2000
   RHO(2)=  100.500       N(2)  =     4000

 VTST: version 3.1, (03/28/14)

 CHAIN: initializing optimizer
 
 OPT: Using VASP Dynamics algorithm
 CHAIN: Read ICHAIN            0
 
 POSCAR: Ge_2+Al2O3_rt3                          
  positions in direct lattice
  velocities in cartesian coordinates
 


--------------------------------------------------------------------------------------------------------


 ion  position               nearest neighbor table
   1  0.004  0.334  0.353-  40 1.70  45 1.71  38 1.72 101 2.87   6 3.00   4 3.01   5 3.05   7 3.12
                             8 3.15   9 3.16
   2  0.666  0.670  0.353-  39 1.70  41 1.71  43 1.72 102 2.87   6 3.00   4 3.01   5 3.05   9 3.12
                             7 3.15   8 3.16
   3  0.330  0.996  0.353-  44 1.70  37 1.71  42 1.72 100 2.87   6 3.00   4 3.01   5 3.05   8 3.12
                             9 3.15   7 3.16
   4  0.000  0.000  0.386-  37 1.82  45 1.82  41 1.82  54 1.94  49 1.94  48 1.94  13 2.59   7 2.74
                             9 2.74   8 2.74   3 3.01   1 3.01   2 3.01
   5  0.667  0.333  0.386-  38 1.82  43 1.82  42 1.82  52 1.94  50 1.94  46 1.94  14 2.59   8 2.74
                             7 2.74   9 2.74   2 3.05   1 3.05   3 3.05
   6  0.333  0.667  0.386-  40 1.81  39 1.81  44 1.81  47 1.94  53 1.94  51 1.94  15 2.59   7 2.74
                             9 2.74   8 2.74   1 3.00   3 3.00   2 3.00
   7  0.333  0.333  0.392-  40 1.89  47 1.92  49 1.92  52 1.92  43 1.92  37 1.93   6 2.74   4 2.74
                             5 2.74   1 3.12   2 3.15   3 3.16  10 3.32  11 3.32  12 3.32
   8  0.000  0.667  0.392-  44 1.89  50 1.92  53 1.92  48 1.92  38 1.92  41 1.93   5 2.74   6 2.74
                             4 2.74   3 3.12   1 3.15   2 3.16  11 3.32  10 3.32  12 3.32
   9  0.667  0.000  0.392-  39 1.89  46 1.92  51 1.92  54 1.92  42 1.92  45 1.93   6 2.74   4 2.74
                             5 2.74   2 3.12   3 3.15   1 3.16  12 3.32  10 3.32  11 3.32
  10  0.000  0.333  0.440-  46 1.85  49 1.85  53 1.85  58 1.94  61 1.94  55 1.94  19 2.62  15 2.77
                            14 2.77  13 2.77   7 3.32   8 3.32   9 3.32
  11  0.667  0.667  0.440-  50 1.85  54 1.85  47 1.85  56 1.94  62 1.94  59 1.94  20 2.62  14 2.77
                            13 2.77  15 2.77   8 3.32   7 3.32   9 3.32
  12  0.333  0.000  0.440-  52 1.85  48 1.85  51 1.85  57 1.94  63 1.94  60 1.94  21 2.62  14 2.77
                            13 2.77  15 2.77   9 3.32   8 3.32   7 3.32
  13  0.000  0.000  0.451-  60 1.85  55 1.85  62 1.85  54 1.98  48 1.98  49 1.98   4 2.59  11 2.77
                            12 2.77  10 2.77  16 3.20  18 3.20  17 3.20
  14  0.667  0.333  0.451-  56 1.85  63 1.85  58 1.85  52 1.98  50 1.98  46 1.98   5 2.59  11 2.77
                            12 2.77  10 2.77  17 3.20  16 3.20  18 3.20
  15  0.333  0.667  0.451-  59 1.85  61 1.85  57 1.85  47 1.98  53 1.98  51 1.98   6 2.59  10 2.77
                            11 2.77  12 2.77  16 3.20  18 3.20  17 3.20
  16  0.333  0.333  0.494-  61 1.84  56 1.84  60 1.84  64 1.97  70 1.97  67 1.97  25 2.62  19 2.78
                            20 2.78  21 2.78  15 3.20  13 3.20  14 3.20
  17  0.000  0.667  0.494-  58 1.84  57 1.84  62 1.84  65 1.97  68 1.97  71 1.97  26 2.62  20 2.78
                            19 2.78  21 2.78  14 3.20  15 3.20  13 3.20
  18  0.667  0.000  0.494-  59 1.84  63 1.84  55 1.84  66 1.97  69 1.97  72 1.97  27 2.62  21 2.78
                            19 2.78  20 2.78  15 3.20  13 3.20  14 3.20
  19  0.000  0.333  0.506-  72 1.84  68 1.84  64 1.84  58 1.97  61 1.97  55 1.97  10 2.62  16 2.78
                            17 2.78  18 2.78  24 3.20  23 3.20  22 3.20
  20  0.667  0.667  0.506-  65 1.84  70 1.84  69 1.84  56 1.97  62 1.97  59 1.97  11 2.62  17 2.78
                            16 2.78  18 2.78  23 3.20  22 3.20  24 3.20
  21  0.333  0.000  0.506-  66 1.84  67 1.84  71 1.84  63 1.97  57 1.97  60 1.97  12 2.62  18 2.78
                            17 2.78  16 2.78  23 3.20  22 3.20  24 3.20
  22  0.000  0.000  0.549-  71 1.85  64 1.85  69 1.85  76 1.98  73 1.98  80 1.98  31 2.59  25 2.77
                            27 2.77  26 2.77  20 3.20  21 3.20  19 3.20
  23  0.667  0.333  0.549-  67 1.85  65 1.85  72 1.85  74 1.98  77 1.98  81 1.98  32 2.59  26 2.77
                            25 2.77  27 2.77  20 3.20  21 3.20  19 3.20
  24  0.333  0.667  0.549-  70 1.85  66 1.85  68 1.85  78 1.98  79 1.98  75 1.98  33 2.59  25 2.77
                            27 2.77  26 2.77  19 3.20  20 3.20  21 3.20
  25  0.333  0.333  0.560-  79 1.85  76 1.85  74 1.85  70 1.94  64 1.94  67 1.94  16 2.62  24 2.77
                            22 2.77  23 2.77  28 3.32  29 3.32  30 3.32
  26  0.000  0.667  0.560-  75 1.85  77 1.85  80 1.85  65 1.94  68 1.94  71 1.94  17 2.62  23 2.77
                            24 2.77  22 2.77  29 3.32  28 3.32  30 3.32
  27  0.667  0.000  0.560-  78 1.85  73 1.85  81 1.85  66 1.94  69 1.94  72 1.94  18 2.62  24 2.77
                            22 2.77  23 2.77  30 3.32  28 3.32  29 3.32
  28  0.000  0.333  0.608-  82 1.89  79 1.92  77 1.92  73 1.92  88 1.92  85 1.93  33 2.74  32 2.74
                            31 2.74  36 3.12  35 3.15  34 3.16  25 3.32  26 3.32  27 3.32
  29  0.667  0.667  0.608-  86 1.89  74 1.92  80 1.92  78 1.92  83 1.92  89 1.93  32 2.74  31 2.74
                            33 2.74  35 3.12  34 3.15  36 3.16  26 3.32  25 3.32  27 3.32
  30  0.333  0.000  0.608-  90 1.89  75 1.92  81 1.92  76 1.92  87 1.92  84 1.93  32 2.74  31 2.74
                            33 2.74  34 3.12  36 3.15  35 3.16  27 3.32  26 3.32  25 3.32
  31  0.000  0.000  0.614-  85 1.82  84 1.82  89 1.82  76 1.94  80 1.94  73 1.94  22 2.59  29 2.74
                            30 2.74  28 2.74  35 3.01  34 3.01  36 3.01
  32  0.667  0.333  0.614-  82 1.81  90 1.81  86 1.81  74 1.94  77 1.94  81 1.94  23 2.59  29 2.74
                            30 2.74  28 2.74  36 3.00  34 3.00  35 3.00
  33  0.333  0.667  0.614-  87 1.82  88 1.82  83 1.82  78 1.94  79 1.94  75 1.94  24 2.59  28 2.74
                            29 2.74  30 2.74  36 3.05  34 3.05  35 3.05
  34  0.334  0.330  0.647-  90 1.70  85 1.71  83 1.72  94 2.87  32 3.00  31 3.01  33 3.05  30 3.12
                            29 3.15  28 3.16
  35  0.996  0.666  0.647-  86 1.70  84 1.71  88 1.72  93 2.87  32 3.00  31 3.01  33 3.05  29 3.12
                            28 3.15  30 3.16
  36  0.670  0.004  0.647-  82 1.70  89 1.71  87 1.72  92 2.87  32 3.00  31 3.01  33 3.05  28 3.12
                            30 3.15  29 3.16
  37  0.220  0.122  0.362-   3 1.71   4 1.82   7 1.93
  38  0.888  0.454  0.362-   1 1.72   5 1.82   8 1.92
  39  0.553  0.791  0.362-   2 1.70   6 1.81   9 1.89
  40  0.238  0.447  0.362-   1 1.70   6 1.81   7 1.89
  41  0.902  0.780  0.362-   2 1.71   4 1.82   8 1.93
  42  0.567  0.112  0.362-   3 1.72   5 1.82   9 1.92
  43  0.546  0.433  0.362-   2 1.72   5 1.82   7 1.92
  44  0.209  0.762  0.362-   3 1.70   6 1.81   8 1.89
  45  0.878  0.098  0.362-   1 1.71   4 1.82   9 1.93
  46  0.770  0.230  0.418-  10 1.85   9 1.92   5 1.94  14 1.98
  47  0.437  0.563  0.418-  11 1.85   7 1.92   6 1.94  15 1.98
  48  0.104  0.896  0.418-  12 1.85   8 1.92   4 1.94  13 1.98
  49  0.104  0.207  0.418-  10 1.85   7 1.92   4 1.94  13 1.98
  50  0.770  0.541  0.418-  11 1.85   8 1.92   5 1.94  14 1.98
  51  0.437  0.874  0.418-  12 1.85   9 1.92   6 1.94  15 1.98
  52  0.459  0.230  0.418-  12 1.85   7 1.92   5 1.94  14 1.98
  53  0.126  0.563  0.418-  10 1.85   8 1.92   6 1.94  15 1.98
  54  0.793  0.896  0.418-  11 1.85   9 1.92   4 1.94  13 1.98
  55  0.899  0.129  0.473-  18 1.84  13 1.85  10 1.94  19 1.97
  56  0.565  0.463  0.473-  16 1.84  14 1.85  11 1.94  20 1.97
  57  0.232  0.796  0.473-  17 1.84  15 1.85  12 1.94  21 1.97
  58  0.897  0.435  0.473-  17 1.84  14 1.85  10 1.94  19 1.97
  59  0.564  0.768  0.473-  18 1.84  15 1.85  11 1.94  20 1.97
  60  0.231  0.101  0.473-  16 1.84  13 1.85  12 1.94  21 1.97
  61  0.204  0.436  0.473-  16 1.84  15 1.85  10 1.94  19 1.97
  62  0.871  0.769  0.473-  17 1.84  13 1.85  11 1.94  20 1.97
  63  0.537  0.103  0.473-  18 1.84  14 1.85  12 1.94  21 1.97
  64  0.129  0.231  0.527-  19 1.84  22 1.85  25 1.94  16 1.97
  65  0.796  0.564  0.527-  20 1.84  23 1.85  26 1.94  17 1.97
  66  0.463  0.897  0.527-  21 1.84  24 1.85  27 1.94  18 1.97
  67  0.436  0.232  0.527-  21 1.84  23 1.85  25 1.94  16 1.97
  68  0.103  0.565  0.527-  19 1.84  24 1.85  26 1.94  17 1.97
  69  0.769  0.899  0.527-  20 1.84  22 1.85  27 1.94  18 1.97
  70  0.435  0.537  0.527-  20 1.84  24 1.85  25 1.94  16 1.97
  71  0.101  0.871  0.527-  21 1.84  22 1.85  26 1.94  17 1.97
  72  0.768  0.204  0.527-  19 1.84  23 1.85  27 1.94  18 1.97
  73  0.896  0.104  0.582-  27 1.85  28 1.92  31 1.94  22 1.98
  74  0.563  0.437  0.582-  25 1.85  29 1.92  32 1.94  23 1.98
  75  0.230  0.770  0.582-  26 1.85  30 1.92  33 1.94  24 1.98
  76  0.207  0.104  0.582-  25 1.85  30 1.92  31 1.94  22 1.98
  77  0.874  0.437  0.582-  26 1.85  28 1.92  32 1.94  23 1.98
  78  0.541  0.770  0.582-  27 1.85  29 1.92  33 1.94  24 1.98
  79  0.230  0.459  0.582-  25 1.85  28 1.92  33 1.94  24 1.98
  80  0.896  0.793  0.582-  26 1.85  29 1.92  31 1.94  22 1.98
  81  0.563  0.126  0.582-  27 1.85  30 1.92  32 1.94  23 1.98
  82  0.791  0.238  0.638-  36 1.70  32 1.81  28 1.89
  83  0.454  0.567  0.638-  34 1.72  33 1.82  29 1.92
  84  0.122  0.902  0.638-  35 1.71  31 1.82  30 1.93
  85  0.098  0.220  0.638-  34 1.71  31 1.82  28 1.93
  86  0.762  0.553  0.638-  35 1.70  32 1.81  29 1.89
  87  0.433  0.888  0.638-  36 1.72  33 1.82  30 1.92
  88  0.112  0.546  0.638-  35 1.72  33 1.82  28 1.92
  89  0.780  0.878  0.638-  36 1.71  31 1.82  29 1.93
  90  0.447  0.209  0.638-  34 1.70  32 1.81  30 1.89
  91  0.000  0.000  0.707-  98 2.49  95 2.49  96 2.49
  92  0.477  0.986  0.709-  97 2.49  96 2.50  95 2.50  36 2.87
  93  0.014  0.491  0.709-  97 2.49  98 2.50  96 2.50  35 2.87
  94  0.509  0.523  0.709-  97 2.49  95 2.50  98 2.50  34 2.87
  95  0.335  0.183  0.725-  91 2.49  94 2.50  92 2.50
  96  0.817  0.152  0.725-  91 2.49  92 2.50  93 2.50
  97  0.333  0.667  0.735-  92 2.49  94 2.49  93 2.49
  98  0.848  0.665  0.725-  91 2.49  93 2.50  94 2.50
  99  0.000  0.000  0.293- 104 2.49 103 2.49 106 2.49
 100  0.523  0.014  0.291- 105 2.49 104 2.50 103 2.50   3 2.87
 101  0.986  0.509  0.291- 105 2.49 106 2.50 104 2.50   1 2.87
 102  0.491  0.477  0.291- 105 2.49 103 2.50 106 2.50   2 2.87
 103  0.665  0.817  0.275-  99 2.49 102 2.50 100 2.50
 104  0.183  0.848  0.275-  99 2.49 100 2.50 101 2.50
 105  0.667  0.333  0.265- 100 2.49 101 2.49 102 2.49
 106  0.152  0.335  0.275-  99 2.49 101 2.50 102 2.50
 
  LATTYP: Found a hexagonal cell.
 ALAT       =     8.1961058128
 C/A-ratio  =     4.8093695586
  
  Lattice vectors:
  
 A1 = (   7.0980358460,  -4.0980529064,   0.0000000000)
 A2 = (   0.0000000000,   8.1961058128,   0.0000000000)
 A3 = (   0.0000000000,   0.0000000000,  39.4181017950)


Analysis of symmetry for initial positions (statically):
=====================================================================
 Subroutine PRICEL returns:
 Original cell was already a primitive cell.
 

 Routine SETGRP: Setting up the symmetry group for a 
 hexagonal supercell.


 Subroutine GETGRP returns: Found  6 space group operations
 (whereof  6 operations were pure point group operations)
 out of a pool of 24 trial point group operations.


The static configuration has the point symmetry S_6 .


Analysis of symmetry for dynamics (positions and initial velocities):
=====================================================================
 Subroutine PRICEL returns:
 Original cell was already a primitive cell.
 

 Routine SETGRP: Setting up the symmetry group for a 
 hexagonal supercell.


 Subroutine GETGRP returns: Found  6 space group operations
 (whereof  6 operations were pure point group operations)
 out of a pool of 24 trial point group operations.


The dynamic configuration has the point symmetry S_6 .


Analysis of constrained symmetry for selective dynamics:
=====================================================================
 Subroutine PRICEL returns:
 Original cell was already a primitive cell.
 

 Routine SETGRP: Setting up the symmetry group for a 
 hexagonal supercell.


 Subroutine GETGRP returns: Found  6 space group operations
 (whereof  6 operations were pure point group operations)
 out of a pool of 24 trial point group operations.


The constrained configuration has the point symmetry S_6 .


 Subroutine INISYM returns: Found  6 space group operations
 (whereof  6 operations are pure point group operations),
 and found     1 'primitive' translations

 
 
 KPOINTS: automatic mesh                          

Automatic generation of k-mesh.
Space group operators:
 irot       det(A)        alpha          n_x          n_y          n_z        tau_x        tau_y        tau_z
    1     1.000000     0.000000     1.000000     0.000000     0.000000     0.000000     0.000000     0.000000
    2    -1.000000     0.000000     1.000000     0.000000     0.000000     0.000000     0.000000     0.000000
    3     1.000000   120.000000     0.000000     0.000000    -1.000000     0.000000     0.000000     0.000000
    4    -1.000000   120.000000     0.000000     0.000000    -1.000000     0.000000     0.000000     0.000000
    5     1.000000   120.000000     0.000000     0.000000     1.000000     0.000000     0.000000     0.000000
    6    -1.000000   120.000000     0.000000     0.000000     1.000000     0.000000     0.000000     0.000000
 
 Subroutine IBZKPT returns following result:
 ===========================================
 
 Found      9 irreducible k-points:
 
 Following reciprocal coordinates:
            Coordinates               Weight
  0.000000  0.000000  0.000000      1.000000
  0.142857  0.000000  0.000000      6.000000
  0.285714  0.000000  0.000000      6.000000
  0.428571  0.000000  0.000000      6.000000
  0.142857  0.142857  0.000000      6.000000
  0.285714  0.142857  0.000000      6.000000
  0.428571  0.142857  0.000000      6.000000
 -0.428571  0.142857  0.000000      6.000000
  0.285714  0.285714  0.000000      6.000000
 
 Following cartesian coordinates:
            Coordinates               Weight
  0.000000  0.000000  0.000000      1.000000
  0.020126  0.000000  0.000000      6.000000
  0.040253  0.000000  0.000000      6.000000
  0.060379  0.000000  0.000000      6.000000
  0.030189  0.017430  0.000000      6.000000
  0.050316  0.017430  0.000000      6.000000
  0.070442  0.017430  0.000000      6.000000
 -0.050316  0.017430  0.000000      6.000000
  0.060379  0.034860  0.000000      6.000000
 


--------------------------------------------------------------------------------------------------------




 Dimension of arrays:
   k-points           NKPTS =      9   k-points in BZ     NKDIM =      9   number of bands    NBANDS=    396
   number of dos      NEDOS =    301   number of ions     NIONS =    106
   non local maximal  LDIM  =      6   non local SUM 2l+1 LMDIM =     18
   total plane-waves  NPLWV = 787320
   max r-space proj   IRMAX =   4987   max aug-charges    IRDMAX=  13560
   dimension x,y,z NGX =    54 NGY =   54 NGZ =  270
   dimension x,y,z NGXF=   108 NGYF=  108 NGZF=  540
   support grid    NGXF=   108 NGYF=  108 NGZF=  540
   ions per type =              36  54  16
   NGX,Y,Z   is equivalent  to a cutoff of  10.95, 10.95, 11.39 a.u.
   NGXF,Y,Z  is equivalent  to a cutoff of  21.91, 21.91, 22.77 a.u.

 SYSTEM =  vasp                                    
 POSCAR =  Ge_2+Al2O3_rt3                          

 Startparameter for this run:
   NWRITE =      2    write-flag & timer
   PREC   = accura    normal or accurate (medium, high low for compatibility)
   ISTART =      0    job   : 0-new  1-cont  2-samecut
   ICHARG =      2    charge: 1-file 2-atom 10-const
   ISPIN  =      1    spin polarized calculation?
   LNONCOLLINEAR =      F non collinear calculations
   LSORBIT =      F    spin-orbit coupling
   INIWAV =      1    electr: 0-lowe 1-rand  2-diag
   LASPH  =      F    aspherical Exc in radial PAW
   METAGGA=      F    non-selfconsistent MetaGGA calc.

 Electronic Relaxation 1
   ENCUT  =  400.0 eV  29.40 Ry    5.42 a.u.  13.37 13.37 64.28*2*pi/ulx,y,z
   ENINI  =  400.0     initial cutoff
   ENAUG  =  605.4 eV  augmentation charge cutoff
   NELM   =    200;   NELMIN=  2; NELMDL= -5     # of ELM steps 
   EDIFF  = 0.1E-05   stopping-criterion for ELM
   LREAL  =      T    real-space projection
   NLSPLINE    = F    spline interpolate recip. space projectors
   LCOMPAT=      F    compatible to vasp.4.4
   GGA_COMPAT  = T    GGA compatible to vasp.4.4-vasp.4.6
   LMAXPAW     = -100 max onsite density
   LMAXMIX     =    2 max onsite mixed and CHGCAR
   VOSKOWN=      0    Vosko Wilk Nusair interpolation
   ROPT   =   -0.00025  -0.00025  -0.00025
 Ionic relaxation
   EDIFFG = 0.1E-04   stopping-criterion for IOM
   NSW    =      0    number of steps for IOM
   NBLOCK =      1;   KBLOCK =      1    inner block; outer block 
   IBRION =     -1    ionic relax: 0-MD 1-quasi-New 2-CG
   NFREE  =      0    steps in history (QN), initial steepest desc. (CG)
   ISIF   =      2    stress and relaxation
   IWAVPR =     10    prediction:  0-non 1-charg 2-wave 3-comb
   ISYM   =      2    0-nonsym 1-usesym 2-fastsym
   LCORR  =      T    Harris-Foulkes like correction to forces

   POTIM  = 0.5000    time-step for ionic-motion
   TEIN   =    0.0    initial temperature
   TEBEG  =    0.0;   TEEND  =   0.0 temperature during run
   SMASS  =  -3.00    Nose mass-parameter (am)
   estimated Nose-frequenzy (Omega)   =  0.10E-29 period in steps =****** mass=  -0.154E-26a.u.
   SCALEE = 1.0000    scale energy and forces
   NPACO  =    256;   APACO  = 16.0  distance and # of slots for P.C.
   PSTRESS=    0.0 pullay stress

  Mass of Ions in am
   POMASS =  26.98 16.00 72.61
  Ionic Valenz
   ZVAL   =   3.00  6.00 14.00
  Atomic Wigner-Seitz radii
   RWIGS  =  -1.00 -1.00 -1.00
  virtual crystal weights 
   VCA    =   1.00  1.00  1.00
   NELECT =     656.0000    total number of electrons
   NUPDOWN=      -1.0000    fix difference up-down

 DOS related values:
   EMIN   =  10.00;   EMAX   =-10.00  energy-range for DOS
   EFERMI =   0.00
   ISMEAR =     1;   SIGMA  =   0.10  broadening in eV -4-tet -1-fermi 0-gaus

 Electronic relaxation 2 (details)
   IALGO  =     68    algorithm
   LDIAG  =      T    sub-space diagonalisation (order eigenvalues)
   LSUBROT=      F    optimize rotation matrix (better conditioning)
   TURBO    =      0    0=normal 1=particle mesh
   IRESTART =      0    0=no restart 2=restart with 2 vectors
   NREBOOT  =      0    no. of reboots
   NMIN     =      0    reboot dimension
   EREF     =   0.00    reference energy to select bands
   IMIX   =      4    mixing-type and parameters
     AMIX     =   0.40;   BMIX     =  1.00
     AMIX_MAG =   1.60;   BMIX_MAG =  1.00
     AMIN     =   0.10
     WC   =   100.;   INIMIX=   1;  MIXPRE=   1;  MAXMIX= -45

 Intra band minimization:
   WEIMIN = 0.0000     energy-eigenvalue tresh-hold
   EBREAK =  0.63E-09  absolut break condition
   DEPER  =   0.30     relativ break condition  

   TIME   =   0.40     timestep for ELM

  volume/ion in A,a.u.               =      21.63       145.99
  Fermi-wavevector in a.u.,A,eV,Ry     =   1.078687  2.038424 15.831285  1.163567
  Thomas-Fermi vector in A             =   2.214633
 
 Write flags
   LWAVE        =      F    write WAVECAR
   LDOWNSAMPLE  =      F    k-point downsampling of WAVECAR
   LCHARG       =      T    write CHGCAR
   LVTOT        =      F    write LOCPOT, total local potential
   LVHAR        =      F    write LOCPOT, Hartree potential only
   LELF         =      F    write electronic localiz. function (ELF)
   LORBIT       =      0    0 simple, 1 ext, 2 COOP (PROOUT), +10 PAW based schemes


 Dipole corrections
   LMONO  =      F    monopole corrections only (constant potential shift)
   LDIPOL =      F    correct potential (dipole corrections)
   IDIPOL =      0    1-x, 2-y, 3-z, 4-all directions 
   EPSILON=  1.0000000 bulk dielectric constant

 Exchange correlation treatment:
   GGA     =    OR    GGA type
   LEXCH   =    41    internal setting for exchange type
   VOSKOWN=      0    Vosko Wilk Nusair interpolation
   LHFCALC =     F    Hartree Fock is set to
   LHFONE  =     F    Hartree Fock one center treatment
   AEXX    =    0.0000 exact exchange contribution

 vdW DFT:
   LUSE_VDW   =     T    switch on vdW DFT
   Zab_VDW    =-.8491    correlation parameter
   PARAM1     =0.1234
   PARAM2     =1.0000
   PARAM3     =0.0000
   -- rVV10 --
   BPARAM     = 6.3000
   CPARAM     = 0.0093

 Linear response parameters
   LEPSILON=     F    determine dielectric tensor
   LRPA    =     F    only Hartree local field effects (RPA)
   LNABLA  =     F    use nabla operator in PAW spheres
   LVEL    =     F    velocity operator in full k-point grid
   LINTERFAST=   F  fast interpolation
   KINTER  =     0    interpolate to denser k-point grid
   CSHIFT  =0.1000    complex shift for real part using Kramers Kronig
   OMEGAMAX=  -1.0    maximum frequency
   DEG_THRESHOLD= 0.2000000E-02 threshold for treating states as degnerate
   RTIME   =   -0.100 relaxation time in fs
  (WPLASMAI=    0.000 imaginary part of plasma frequency in eV, 0.658/RTIME)
   DFIELD  = 0.0000000 0.0000000 0.0000000 field for delta impulse in time
 
 Orbital magnetization related:
   ORBITALMAG=     F  switch on orbital magnetization
   LCHIMAG   =     F  perturbation theory with respect to B field
   DQ        =  0.001000  dq finite difference perturbation B field
   LLRAUG    =     F  two centre corrections for induced B field



--------------------------------------------------------------------------------------------------------


 Static calculation
 charge density and potential will be updated during run
 non-spin polarized calculation
 RMM-DIIS sequential band-by-band and
  variant of blocked Davidson during initial phase
 perform sub-space diagonalisation
    before iterative eigenvector-optimisation
 modified Broyden-mixing scheme, WC =      100.0
 initial mixing is a Kerker type mixing with AMIX =  0.4000 and BMIX =      1.0000
 Hartree-type preconditioning will be used
 using additional bands           68
 real space projection scheme for non local part
 use partial core corrections
 calculate Harris-corrections to forces 
   (improved forces if not selfconsistent)
 use gradient corrections 
 use of overlap-Matrix (Vanderbilt PP)
 Methfessel and Paxton  Order N= 1 SIGMA  =   0.10


--------------------------------------------------------------------------------------------------------


  energy-cutoff  :      400.00
  volume of cell :     2293.20
      direct lattice vectors                 reciprocal lattice vectors
     7.098035846 -4.098052906  0.000000000     0.140884045  0.000000000  0.000000000
     0.000000000  8.196105813  0.000000000     0.070442022  0.122009162  0.000000000
     0.000000000  0.000000000 39.418101795     0.000000000  0.000000000  0.025369055

  length of vectors
     8.196105813  8.196105813 39.418101795     0.140884045  0.140884045  0.025369055


 
 k-points in units of 2pi/SCALE and weight: automatic mesh                          
   0.00000000  0.00000000  0.00000000       0.020
   0.02012629  0.00000000  0.00000000       0.122
   0.04025258  0.00000000  0.00000000       0.122
   0.06037888  0.00000000  0.00000000       0.122
   0.03018944  0.01742988  0.00000000       0.122
   0.05031573  0.01742988  0.00000000       0.122
   0.07044202  0.01742988  0.00000000       0.122
  -0.05031573  0.01742988  0.00000000       0.122
   0.06037888  0.03485976  0.00000000       0.122
 
 k-points in reciprocal lattice and weights: automatic mesh                          
   0.00000000  0.00000000  0.00000000       0.020
   0.14285714  0.00000000  0.00000000       0.122
   0.28571429  0.00000000  0.00000000       0.122
   0.42857143  0.00000000  0.00000000       0.122
   0.14285714  0.14285714  0.00000000       0.122
   0.28571429  0.14285714  0.00000000       0.122
   0.42857143  0.14285714  0.00000000       0.122
  -0.42857143  0.14285714  0.00000000       0.122
   0.28571429  0.28571429  0.00000000       0.122
 
 position of ions in fractional coordinates (direct lattice) 
   0.00409060  0.33416872  0.35270312
   0.66583128  0.66992188  0.35270312
   0.33007812  0.99590940  0.35270312
   0.00000000  0.00000000  0.38553783
   0.66666667  0.33333333  0.38553783
   0.33333333  0.66666667  0.38553783
   0.33333333  0.33333333  0.39228241
   0.00000000  0.66666667  0.39228241
   0.66666667  0.00000000  0.39228241
   0.00000000  0.33333333  0.43995165
   0.66666667  0.66666667  0.43995165
   0.33333333  0.00000000  0.43995165
   0.00000000  0.00000000  0.45121128
   0.66666667  0.33333333  0.45121128
   0.33333333  0.66666667  0.45121128
   0.33333333  0.33333333  0.49352022
   0.00000000  0.66666667  0.49352022
   0.66666667  0.00000000  0.49352022
   0.00000000  0.33333333  0.50647978
   0.66666667  0.66666667  0.50647978
   0.33333333  0.00000000  0.50647978
   0.00000000  0.00000000  0.54878872
   0.66666667  0.33333333  0.54878872
   0.33333333  0.66666667  0.54878872
   0.33333333  0.33333333  0.56004835
   0.00000000  0.66666667  0.56004835
   0.66666667  0.00000000  0.56004835
   0.00000000  0.33333333  0.60771759
   0.66666667  0.66666667  0.60771759
   0.33333333  0.00000000  0.60771759
   0.00000000  0.00000000  0.61446217
   0.66666667  0.33333333  0.61446217
   0.33333333  0.66666667  0.61446217
   0.33416872  0.33007812  0.64729688
   0.99590940  0.66583128  0.64729688
   0.66992188  0.00409060  0.64729688
   0.21999414  0.12163125  0.36175314
   0.88753862  0.45412957  0.36210441
   0.55334967  0.79137899  0.36247327
   0.23802932  0.44665033  0.36247327
   0.90163711  0.78000586  0.36175314
   0.56659095  0.11246138  0.36210441
   0.54587043  0.43340905  0.36210441
   0.20862101  0.76197068  0.36247327
   0.87836875  0.09836289  0.36175314
   0.77048822  0.22979575  0.41767575
   0.43715489  0.56312908  0.41767575
   0.10382156  0.89646242  0.41767575
   0.10353758  0.20735914  0.41767575
   0.77020425  0.54069247  0.41767575
   0.43687092  0.87402581  0.41767575
   0.45930753  0.22951178  0.41767575
   0.12597419  0.56284511  0.41767575
   0.79264086  0.89617844  0.41767575
   0.89874099  0.12933291  0.47272733
   0.56540765  0.46266624  0.47272733
   0.23207432  0.79599958  0.47272733
   0.89725859  0.43459235  0.47272733
   0.56392526  0.76792568  0.47272733
   0.23059192  0.10125901  0.47272733
   0.20400042  0.43607474  0.47272733
   0.87066709  0.76940808  0.47272733
   0.53733376  0.10274141  0.47272733
   0.12933291  0.23059192  0.52727267
   0.79599958  0.56392526  0.52727267
   0.46266624  0.89725859  0.52727267
   0.43607474  0.23207432  0.52727267
   0.10274141  0.56540765  0.52727267
   0.76940808  0.89874099  0.52727267
   0.43459235  0.53733376  0.52727267
   0.10125901  0.87066709  0.52727267
   0.76792568  0.20400042  0.52727267
   0.89617844  0.10353758  0.58232425
   0.56284511  0.43687092  0.58232425
   0.22951178  0.77020425  0.58232425
   0.20735914  0.10382156  0.58232425
   0.87402581  0.43715489  0.58232425
   0.54069247  0.77048822  0.58232425
   0.22979575  0.45930753  0.58232425
   0.89646242  0.79264086  0.58232425
   0.56312908  0.12597419  0.58232425
   0.79137899  0.23802932  0.63752673
   0.45412957  0.56659095  0.63789559
   0.12163125  0.90163711  0.63824686
   0.09836289  0.21999414  0.63824686
   0.76197068  0.55334967  0.63752673
   0.43340905  0.88753862  0.63789559
   0.11246138  0.54587043  0.63789559
   0.78000586  0.87836875  0.63824686
   0.44665033  0.20862101  0.63752673
   0.00000000  0.00000000  0.70701424
   0.47708487  0.98566408  0.70910839
   0.01433592  0.49142079  0.70910839
   0.50857921  0.52291513  0.70910839
   0.33534063  0.18289043  0.72515065
   0.81710957  0.15245019  0.72515065
   0.33333333  0.66666667  0.73515826
   0.84754981  0.66465937  0.72515065
   0.00000000  0.00000000  0.29298576
   0.52291513  0.01433592  0.29089161
   0.98566408  0.50857921  0.29089161
   0.49142079  0.47708487  0.29089161
   0.66465937  0.81710957  0.27484935
   0.18289043  0.84754981  0.27484935
   0.66666667  0.33333333  0.26484174
   0.15245019  0.33534063  0.27484935
 
 position of ions in cartesian coordinates  (Angst):
   0.02903521  2.72211871 13.90288762
   4.72609429  2.76213878 13.90288762
   2.34290635  6.80990123 13.90288762
   0.00000000  0.00000000 15.19716955
   4.73202390  0.00000000 15.19716955
   2.36601195  4.09805291 15.19716955
   2.36601195  1.36601764 15.46302783
   0.00000000  5.46407054 15.46302783
   4.73202390 -2.73203527 15.46302783
   0.00000000  2.73203527 17.34205903
   4.73202390  2.73203527 17.34205903
   2.36601195 -1.36601764 17.34205903
   0.00000000  0.00000000 17.78589203
   4.73202390  0.00000000 17.78589203
   2.36601195  4.09805291 17.78589203
   2.36601195  1.36601764 19.45363034
   0.00000000  5.46407054 19.45363034
   4.73202390 -2.73203527 19.45363034
   0.00000000  2.73203527 19.96447146
   4.73202390  2.73203527 19.96447146
   2.36601195 -1.36601764 19.96447146
   0.00000000  0.00000000 21.63220977
   4.73202390  0.00000000 21.63220977
   2.36601195  4.09805291 21.63220977
   2.36601195  1.36601764 22.07604276
   0.00000000  5.46407054 22.07604276
   4.73202390 -2.73203527 22.07604276
   0.00000000  2.73203527 23.95507397
   4.73202390  2.73203527 23.95507397
   2.36601195 -1.36601764 23.95507397
   0.00000000  0.00000000 24.22093224
   4.73202390  0.00000000 24.22093224
   2.36601195  4.09805291 24.22093224
   2.37194156  1.33591413 25.51521417
   7.06900064  1.37593420 25.51521417
   4.75512950 -2.71184833 25.51521417
   1.56152629  0.09535499 14.25962221
   6.29978096  0.08491380 14.27346853
   3.92769577  4.21856970 14.28800807
   1.68954064  2.68533665 14.28800807
   6.39985255  2.69805397 14.25962221
   4.02168288 -1.40017434 14.27346853
   3.87460786  1.31526054 14.27346853
   1.48079943  5.39025237 14.28800807
   6.23469286 -2.79340897 14.25962221
   5.46895303 -1.27407122 16.46398536
   3.10294108  2.82398169 16.46398536
   0.73692914  6.92203460 16.46398536
   0.73491347  1.27523496 16.46398536
   5.46693737  1.27523496 16.46398536
   3.10092542  5.37328787 16.46398536
   3.26018129 -0.00116374 16.46398536
   0.89416934  4.09688916 16.46398536
   5.62619324  4.09688916 16.46398536
   6.37929574 -2.62306189 18.63401389
   4.01328379  1.47499102 18.63401389
   1.64727184  5.57304393 18.63401389
   6.36877365 -0.11504832 18.63401389
   4.00276170  3.98300459 18.63401389
   1.63674975 -0.11504832 18.63401389
   1.44800231  2.73811020 18.63401389
   6.18002621  2.73811020 18.63401389
   3.81401426 -1.35994270 18.63401389
   0.91800964  1.35994270 20.78408790
   5.65003354  1.35994270 20.78408790
   3.28402159  5.45799561 20.78408790
   3.09527415  0.11504832 20.78408790
   0.72926220  4.21310122 20.78408790
   5.46128610  4.21310122 20.78408790
   3.08475206  2.62306189 20.78408790
   0.71874011  6.72111479 20.78408790
   5.45076401 -1.47499102 20.78408790
   6.36110671 -2.82398169 22.95411644
   3.99509476  1.27407122 22.95411644
   1.62908281  5.37212412 22.95411644
   1.47184261  0.00116374 22.95411644
   6.20386650  0.00116374 22.95411644
   3.83785456  4.09921665 22.95411644
   1.63109848  2.82281795 22.95411644
   6.36312237  2.82281795 22.95411644
   3.99711043 -1.27523496 22.95411644
   5.61723641 -1.29219947 25.13009373
   3.22342799  2.78279236 25.14463326
   0.86334299  6.89146187 25.15847959
   0.69818330  1.39999893 25.15847959
   5.40849520  1.41271626 25.13009373
   3.07635297  5.49822725 25.14463326
   0.79825489  4.01313910 25.14463326
   5.53650956  4.00269791 25.15847959
   3.17034008 -0.12051679 25.13009373
   0.00000000  0.00000000 27.86915924
   3.38636554  6.12348807 27.95170662
   0.10175684  3.96898746 27.95170662
   3.60991346  2.20168319 27.95170662
   2.38025978  0.12474572 28.58406213
   5.79987300 -2.09906033 28.58406213
   2.36601195  4.09805291 28.97854317
   6.01593892  1.97431461 28.58406213
   0.00000000  0.00000000 11.54894255
   3.71167030 -2.02543517 11.46639517
   6.99627900  0.12906545 11.46639517
   3.48812239  1.89636972 11.46639517
   4.71777607  3.97330719 10.83403967
   1.29816285  6.19711324 10.83403967
   4.73202390 -0.00000000 10.43955862
   1.08209693  2.12373830 10.83403967
 


--------------------------------------------------------------------------------------------------------


 k-point  1 :   0.0000 0.0000 0.0000  plane waves:   41799
 k-point  2 :   0.1429 0.0000 0.0000  plane waves:   41707
 k-point  3 :   0.2857 0.0000 0.0000  plane waves:   41671
 k-point  4 :   0.4286 0.0000 0.0000  plane waves:   41640
 k-point  5 :   0.1429 0.1429 0.0000  plane waves:   41675
 k-point  6 :   0.2857 0.1429 0.0000  plane waves:   41656
 k-point  7 :   0.4286 0.1429 0.0000  plane waves:   41646
 k-point  8 :  -0.4286 0.1429 0.0000  plane waves:   41656
 k-point  9 :   0.2857 0.2857 0.0000  plane waves:   41591

 maximum and minimum number of plane-waves per node :     41799    41591

 maximum number of plane-waves:     41799
 maximum index in each direction: 
   IXMAX=   13   IYMAX=   13   IZMAX=   64
   IXMIN=  -13   IYMIN=  -13   IZMIN=  -64


 serial   3D FFT for wavefunctions
 parallel 3D FFT for charge:
    minimum data exchange during FFTs selected (reduces bandwidth)


 total amount of memory used by VASP MPI-rank0   877326. kBytes
=======================================================================

   base      :      30000. kBytes
   nonlr-proj:      46657. kBytes
   fftplans  :      56155. kBytes
   grid      :     132596. kBytes
   one-center:       1648. kBytes
   wavefun   :     610270. kBytes
 
     INWAV:  cpu time    0.0000: real time    0.0028
 Broyden mixing: mesh for mixing (old mesh)
   NGX = 27   NGY = 27   NGZ =129
  (NGX  =108   NGY  =108   NGZ  =540)
  gives a total of  94041 points

 initial charge density was supplied:
 charge density of overlapping atoms calculated
 number of electron     656.0000000 magnetization 
 keeping initial charge density in first step


--------------------------------------------------------------------------------------------------------


 Maximum index for non-local projection operator         4799
 Maximum index for augmentation-charges         3225 (set IRDMAX)


--------------------------------------------------------------------------------------------------------


 First call to EWALD:  gamma=   0.134
 Maximum number of real-space cells 5x 5x 1
 Maximum number of reciprocal cells 2x 2x 7

    FEWALD:  cpu time    0.0168: real time    0.0420


----------------------------------------- Iteration    1(   1)  ---------------------------------------


vdW kernel read from vdw_kernel.bindat
  0.0000  0.2424  0.5071  0.7962  1.1119  1.4567  1.8333  2.2446  2.6937  3.1842
  3.7199  4.3049  4.9438  5.6415  6.4036  7.2358  8.1446  9.1372 10.2212 11.4050
 12.6979 14.1099 15.6519 17.3360 19.1751 21.1837 23.3773 25.7729 28.3892 31.2465
 34.3669 37.7748 41.4965 45.5611 50.0000
 
    POTLOK:  cpu time   50.3217: real time  100.6851
    SETDIJ:  cpu time    0.0448: real time    0.0930
     EDDAV:  cpu time   30.6066: real time   61.3513
       DOS:  cpu time    0.0018: real time    0.0018
    --------------------------------------------
      LOOP:  cpu time   80.9764: real time  162.1335

 eigenvalue-minimisations  :  8696
 total energy-change (2. order) : 0.1411860E+05  (-0.1790073E+05)
 number of electron     656.0000000 magnetization 
 augmentation part      656.0000000 magnetization 

 Free energy of the ion-electron system (eV)
  ---------------------------------------------------
  alpha Z        PSCENC =      1009.80004948
  Ewald energy   TEWEN  =    475818.26566418
  -Hartree energ DENC   =   -531091.83952205
  -exchange      EXHF   =         0.00000000
  -V(xc)+E(xc)   XCENC  =      1677.44395724
  PAW double counting   =     40577.31226881   -46286.30976087
  entropy T*S    EENTRO =        -0.00029430
  eigenvalues    EBANDS =      5425.50341380
  atomic energy  EATOM  =     66988.42750902
  Solvation  Ediel_sol  =         0.00000000
  ---------------------------------------------------
  free energy    TOTEN  =     14118.60328530 eV

  energy without entropy =    14118.60357960  energy(sigma->0) =    14118.60338340


--------------------------------------------------------------------------------------------------------




----------------------------------------- Iteration    1(   2)  ---------------------------------------


     EDDAV:  cpu time   26.1635: real time   52.4605
       DOS:  cpu time    0.0024: real time    0.0024
    --------------------------------------------
      LOOP:  cpu time   26.1663: real time   52.4633

 eigenvalue-minimisations  :  8384
 total energy-change (2. order) :-0.1170858E+05  (-0.1117762E+05)
 number of electron     656.0000000 magnetization 
 augmentation part      656.0000000 magnetization 

 Free energy of the ion-electron system (eV)
  ---------------------------------------------------
  alpha Z        PSCENC =      1009.80004948
  Ewald energy   TEWEN  =    475818.26566418
  -Hartree energ DENC   =   -531091.83952205
  -exchange      EXHF   =         0.00000000
  -V(xc)+E(xc)   XCENC  =      1677.44395724
  PAW double counting   =     40577.31226881   -46286.30976087
  entropy T*S    EENTRO =         0.00017735
  eigenvalues    EBANDS =     -6283.08171983
  atomic energy  EATOM  =     66988.42750902
  Solvation  Ediel_sol  =         0.00000000
  ---------------------------------------------------
  free energy    TOTEN  =      2410.01862334 eV

  energy without entropy =     2410.01844598  energy(sigma->0) =     2410.01856422


--------------------------------------------------------------------------------------------------------




----------------------------------------- Iteration    1(   3)  ---------------------------------------


     EDDAV:  cpu time   25.7658: real time   51.5682
       DOS:  cpu time    0.0025: real time    0.0028
    --------------------------------------------
      LOOP:  cpu time   25.7693: real time   51.5713

 eigenvalue-minimisations  :  8824
 total energy-change (2. order) :-0.2891089E+04  (-0.2775667E+04)
 number of electron     656.0000000 magnetization 
 augmentation part      656.0000000 magnetization 

 Free energy of the ion-electron system (eV)
  ---------------------------------------------------
  alpha Z        PSCENC =      1009.80004948
  Ewald energy   TEWEN  =    475818.26566418
  -Hartree energ DENC   =   -531091.83952205
  -exchange      EXHF   =         0.00000000
  -V(xc)+E(xc)   XCENC  =      1677.44395724
  PAW double counting   =     40577.31226881   -46286.30976087
  entropy T*S    EENTRO =         0.00232200
  eigenvalues    EBANDS =     -9174.17275882
  atomic energy  EATOM  =     66988.42750902
  Solvation  Ediel_sol  =         0.00000000
  ---------------------------------------------------
  free energy    TOTEN  =      -481.07027102 eV

  energy without entropy =     -481.07259301  energy(sigma->0) =     -481.07104502


--------------------------------------------------------------------------------------------------------




----------------------------------------- Iteration    1(   4)  ---------------------------------------


     EDDAV:  cpu time   26.9714: real time   53.9988
       DOS:  cpu time    0.0015: real time    0.0024
    --------------------------------------------
      LOOP:  cpu time   26.9747: real time   54.0023

 eigenvalue-minimisations  :  9296
 total energy-change (2. order) :-0.3370910E+03  (-0.3338878E+03)
 number of electron     656.0000000 magnetization 
 augmentation part      656.0000000 magnetization 

 Free energy of the ion-electron system (eV)
  ---------------------------------------------------
  alpha Z        PSCENC =      1009.80004948
  Ewald energy   TEWEN  =    475818.26566418
  -Hartree energ DENC   =   -531091.83952205
  -exchange      EXHF   =         0.00000000
  -V(xc)+E(xc)   XCENC  =      1677.44395724
  PAW double counting   =     40577.31226881   -46286.30976087
  entropy T*S    EENTRO =         0.00423476
  eigenvalues    EBANDS =     -9511.26562314
  atomic energy  EATOM  =     66988.42750902
  Solvation  Ediel_sol  =         0.00000000
  ---------------------------------------------------
  free energy    TOTEN  =      -818.16122257 eV

  energy without entropy =     -818.16545733  energy(sigma->0) =     -818.16263415


--------------------------------------------------------------------------------------------------------




----------------------------------------- Iteration    1(   5)  ---------------------------------------


     EDDAV:  cpu time   29.2193: real time   58.5739
       DOS:  cpu time    0.0043: real time    0.0071
    CHARGE:  cpu time    4.3487: real time    8.6908
    MIXING:  cpu time    0.0265: real time    0.0584
    --------------------------------------------
      LOOP:  cpu time   33.5994: real time   67.3307

 eigenvalue-minimisations  :  9120
 total energy-change (2. order) :-0.1515467E+02  (-0.1508275E+02)
 number of electron     656.0000191 magnetization 
 augmentation part      180.9318672 magnetization 

 Broyden mixing:
  rms(total) = 0.57265E+01    rms(broyden)= 0.57243E+01
  rms(prec ) = 0.58749E+01
  weight for this iteration     100.00

 Free energy of the ion-electron system (eV)
  ---------------------------------------------------
  alpha Z        PSCENC =      1009.80004948
  Ewald energy   TEWEN  =    475818.26566418
  -Hartree energ DENC   =   -531091.83952205
  -exchange      EXHF   =         0.00000000
  -V(xc)+E(xc)   XCENC  =      1677.44395724
  PAW double counting   =     40577.31226881   -46286.30976087
  entropy T*S    EENTRO =         0.00405753
  eigenvalues    EBANDS =     -9526.42012067
  atomic energy  EATOM  =     66988.42750902
  Solvation  Ediel_sol  =         0.00000000
  ---------------------------------------------------
  free energy    TOTEN  =      -833.31589733 eV

  energy without entropy =     -833.31995486  energy(sigma->0) =     -833.31724984


--------------------------------------------------------------------------------------------------------




----------------------------------------- Iteration    1(   6)  ---------------------------------------


    POTLOK:  cpu time   49.6846: real time   99.4176
    SETDIJ:  cpu time    0.0434: real time    0.0956
    EDDIAG:  cpu time    4.0795: real time    8.1704
  RMM-DIIS:  cpu time    9.2164: real time   18.4558
    ORTHCH:  cpu time    1.5336: real time    3.0609
       DOS:  cpu time    0.0031: real time    0.0069
    CHARGE:  cpu time    4.2967: real time    8.5901
    MIXING:  cpu time    0.0250: real time    0.0555
    --------------------------------------------
      LOOP:  cpu time   68.8834: real time  137.8572

 eigenvalue-minimisations  : 10638
 total energy-change (2. order) : 0.9887589E+02  (-0.3881698E+02)
 number of electron     656.0000166 magnetization 
 augmentation part      173.9796896 magnetization 

 Broyden mixing:
  rms(total) = 0.15114E+01    rms(broyden)= 0.15079E+01
  rms(prec ) = 0.15449E+01
  weight for this iteration     100.00

 eigenvalues of (default mixing * dielectric matrix)
  average eigenvalue GAMMA=   1.0027
  1.0027

 Free energy of the ion-electron system (eV)
  ---------------------------------------------------
  alpha Z        PSCENC =      1009.80004948
  Ewald energy   TEWEN  =    475818.26566418
  -Hartree energ DENC   =   -532562.11910340
  -exchange      EXHF   =         0.00000000
  -V(xc)+E(xc)   XCENC  =      1744.11471179
  PAW double counting   =     43614.82401210   -49361.37815550
  entropy T*S    EENTRO =         0.00231087
  eigenvalues    EBANDS =     -7986.37701076
  atomic energy  EATOM  =     66988.42750902
  Solvation  Ediel_sol  =         0.00000000
  ---------------------------------------------------
  free energy    TOTEN  =      -734.44001222 eV

  energy without entropy =     -734.44232309  energy(sigma->0) =     -734.44078251


--------------------------------------------------------------------------------------------------------




----------------------------------------- Iteration    1(   7)  ---------------------------------------


    POTLOK:  cpu time   49.8609: real time   99.7992
    SETDIJ:  cpu time    0.0471: real time    0.1004
    EDDIAG:  cpu time    4.1266: real time    8.2582
  RMM-DIIS:  cpu time    9.1767: real time   18.3517
    ORTHCH:  cpu time    3.3739: real time    6.7488
       DOS:  cpu time    0.0040: real time    0.0081
    CHARGE:  cpu time    4.9889: real time    9.9955
    MIXING:  cpu time    0.0370: real time    0.0792
    --------------------------------------------
      LOOP:  cpu time   71.6157: real time  143.3420

 eigenvalue-minimisations  : 10644
 total energy-change (2. order) : 0.2417776E+01  (-0.1635805E+01)
 number of electron     656.0000162 magnetization 
 augmentation part      172.9595617 magnetization 

 Broyden mixing:
  rms(total) = 0.10347E+01    rms(broyden)= 0.10341E+01
  rms(prec ) = 0.10518E+01
  weight for this iteration     100.00

 eigenvalues of (default mixing * dielectric matrix)
  average eigenvalue GAMMA=   1.7045
  1.1760  2.2330

 Free energy of the ion-electron system (eV)
  ---------------------------------------------------
  alpha Z        PSCENC =      1009.80004948
  Ewald energy   TEWEN  =    475818.26566418
  -Hartree energ DENC   =   -532903.98655789
  -exchange      EXHF   =         0.00000000
  -V(xc)+E(xc)   XCENC  =      1754.32407312
  PAW double counting   =     44503.01690256   -50265.26313225
  entropy T*S    EENTRO =         0.00182607
  eigenvalues    EBANDS =     -7636.60857069
  atomic energy  EATOM  =     66988.42750902
  Solvation  Ediel_sol  =         0.00000000
  ---------------------------------------------------
  free energy    TOTEN  =      -732.02223641 eV

  energy without entropy =     -732.02406247  energy(sigma->0) =     -732.02284510


--------------------------------------------------------------------------------------------------------




----------------------------------------- Iteration    1(   8)  ---------------------------------------


    POTLOK:  cpu time   49.7424: real time   99.5383
    SETDIJ:  cpu time    0.0461: real time    0.1050
    EDDIAG:  cpu time    4.1671: real time    8.3392
  RMM-DIIS:  cpu time   10.4625: real time   20.9426
    ORTHCH:  cpu time    1.5391: real time    3.0793
       DOS:  cpu time    0.0038: real time    0.0085
    CHARGE:  cpu time    4.4373: real time    8.8725
    MIXING:  cpu time    0.0290: real time    0.0624
    --------------------------------------------
      LOOP:  cpu time   70.4286: real time  140.9485

 eigenvalue-minimisations  : 10837
 total energy-change (2. order) : 0.7067178E+00  (-0.4837412E+00)
 number of electron     656.0000162 magnetization 
 augmentation part      173.1567281 magnetization 

 Broyden mixing:
  rms(total) = 0.19717E+00    rms(broyden)= 0.19678E+00
  rms(prec ) = 0.20238E+00
  weight for this iteration     100.00

 eigenvalues of (default mixing * dielectric matrix)
  average eigenvalue GAMMA=   1.5746
  2.5413  1.0913  1.0913

 Free energy of the ion-electron system (eV)
  ---------------------------------------------------
  alpha Z        PSCENC =      1009.80004948
  Ewald energy   TEWEN  =    475818.26566418
  -Hartree energ DENC   =   -533228.18822761
  -exchange      EXHF   =         0.00000000
  -V(xc)+E(xc)   XCENC  =      1756.55875899
  PAW double counting   =     45246.92273396   -51023.92211691
  entropy T*S    EENTRO =         0.00163531
  eigenvalues    EBANDS =     -7299.18152504
  atomic energy  EATOM  =     66988.42750902
  Solvation  Ediel_sol  =         0.00000000
  ---------------------------------------------------
  free energy    TOTEN  =      -731.31551863 eV

  energy without entropy =     -731.31715393  energy(sigma->0) =     -731.31606373


--------------------------------------------------------------------------------------------------------




----------------------------------------- Iteration    1(   9)  ---------------------------------------


    POTLOK:  cpu time   51.0751: real time  102.2036
    SETDIJ:  cpu time    0.0458: real time    0.0986
    EDDIAG:  cpu time    4.1992: real time    8.4025
  RMM-DIIS:  cpu time    9.3187: real time   18.6652
    ORTHCH:  cpu time    1.5611: real time    3.1137
       DOS:  cpu time    0.0027: real time    0.0058
    CHARGE:  cpu time    4.3262: real time    8.6499
    MIXING:  cpu time    0.0276: real time    0.0605
    --------------------------------------------
      LOOP:  cpu time   70.5579: real time  141.2053

 eigenvalue-minimisations  : 10970
 total energy-change (2. order) : 0.5934965E-01  (-0.6714589E-01)
 number of electron     656.0000161 magnetization 
 augmentation part      172.9485537 magnetization 

 Broyden mixing:
  rms(total) = 0.74832E-01    rms(broyden)= 0.74570E-01
  rms(prec ) = 0.76254E-01
  weight for this iteration     100.00

 eigenvalues of (default mixing * dielectric matrix)
  average eigenvalue GAMMA=   1.6943
  1.0254  1.0254  2.5890  2.1374

 Free energy of the ion-electron system (eV)
  ---------------------------------------------------
  alpha Z        PSCENC =      1009.80004948
  Ewald energy   TEWEN  =    475818.26566418
  -Hartree energ DENC   =   -533307.54601086
  -exchange      EXHF   =         0.00000000
  -V(xc)+E(xc)   XCENC  =      1759.52208247
  PAW double counting   =     45395.97537241   -51175.41081772
  entropy T*S    EENTRO =         0.00153289
  eigenvalues    EBANDS =     -7220.29155086
  atomic energy  EATOM  =     66988.42750902
  Solvation  Ediel_sol  =         0.00000000
  ---------------------------------------------------
  free energy    TOTEN  =      -731.25616898 eV

  energy without entropy =     -731.25770187  energy(sigma->0) =     -731.25667994


--------------------------------------------------------------------------------------------------------




----------------------------------------- Iteration    1(  10)  ---------------------------------------


    POTLOK:  cpu time   50.9018: real time  101.8438
    SETDIJ:  cpu time    0.0455: real time    0.1014
    EDDIAG:  cpu time    4.1643: real time    8.3413
  RMM-DIIS:  cpu time    9.4277: real time   18.8786
    ORTHCH:  cpu time    1.5450: real time    3.0798
       DOS:  cpu time    0.0029: real time    0.0099
    CHARGE:  cpu time    4.2736: real time    8.5378
    MIXING:  cpu time    0.0295: real time    0.0645
    --------------------------------------------
      LOOP:  cpu time   70.3914: real time  140.8609

 eigenvalue-minimisations  : 10643
 total energy-change (2. order) :-0.5263126E-02  (-0.1328386E-01)
 number of electron     656.0000161 magnetization 
 augmentation part      172.8816981 magnetization 

 Broyden mixing:
  rms(total) = 0.46265E-01    rms(broyden)= 0.46228E-01
  rms(prec ) = 0.47117E-01
  weight for this iteration     100.00

 eigenvalues of (default mixing * dielectric matrix)
  average eigenvalue GAMMA=   1.5968
  2.6496  2.2491  1.0190  1.0190  1.0476

 Free energy of the ion-electron system (eV)
  ---------------------------------------------------
  alpha Z        PSCENC =      1009.80004948
  Ewald energy   TEWEN  =    475818.26566418
  -Hartree energ DENC   =   -533307.06842110
  -exchange      EXHF   =         0.00000000
  -V(xc)+E(xc)   XCENC  =      1760.00653537
  PAW double counting   =     45371.84573421   -51151.77606949
  entropy T*S    EENTRO =         0.00151739
  eigenvalues    EBANDS =     -7220.76395116
  atomic energy  EATOM  =     66988.42750902
  Solvation  Ediel_sol  =         0.00000000
  ---------------------------------------------------
  free energy    TOTEN  =      -731.26143210 eV

  energy without entropy =     -731.26294950  energy(sigma->0) =     -731.26193790


--------------------------------------------------------------------------------------------------------




----------------------------------------- Iteration    1(  11)  ---------------------------------------


    POTLOK:  cpu time   51.1074: real time  102.2557
    SETDIJ:  cpu time    0.0453: real time    0.1002
    EDDIAG:  cpu time    4.2187: real time    8.4461
  RMM-DIIS:  cpu time    9.6933: real time   19.3998
    ORTHCH:  cpu time    1.5141: real time    3.0218
       DOS:  cpu time    0.0027: real time    0.0059
    CHARGE:  cpu time    4.3873: real time    8.7709
    MIXING:  cpu time    0.0304: real time    0.0658
    --------------------------------------------
      LOOP:  cpu time   71.0006: real time  142.0744

 eigenvalue-minimisations  : 10820
 total energy-change (2. order) : 0.5114944E-02  (-0.1985871E-02)
 number of electron     656.0000161 magnetization 
 augmentation part      172.9152202 magnetization 

 Broyden mixing:
  rms(total) = 0.10992E-01    rms(broyden)= 0.10987E-01
  rms(prec ) = 0.11349E-01
  weight for this iteration     100.00

 eigenvalues of (default mixing * dielectric matrix)
  average eigenvalue GAMMA=   1.6002
  2.4934  2.4934  1.5120  1.0526  1.0250  1.0250

 Free energy of the ion-electron system (eV)
  ---------------------------------------------------
  alpha Z        PSCENC =      1009.80004948
  Ewald energy   TEWEN  =    475818.26566418
  -Hartree energ DENC   =   -533304.63086212
  -exchange      EXHF   =         0.00000000
  -V(xc)+E(xc)   XCENC  =      1759.59970825
  PAW double counting   =     45351.52665287   -51131.34962462
  entropy T*S    EENTRO =         0.00152474
  eigenvalues    EBANDS =     -7222.89693896
  atomic energy  EATOM  =     66988.42750902
  Solvation  Ediel_sol  =         0.00000000
  ---------------------------------------------------
  free energy    TOTEN  =      -731.25631716 eV

  energy without entropy =     -731.25784190  energy(sigma->0) =     -731.25682541


--------------------------------------------------------------------------------------------------------




----------------------------------------- Iteration    1(  12)  ---------------------------------------


    POTLOK:  cpu time   50.9779: real time  102.0018
    SETDIJ:  cpu time    0.0470: real time    0.1086
    EDDIAG:  cpu time    5.7025: real time   11.4170
  RMM-DIIS:  cpu time    9.0719: real time   18.1919
    ORTHCH:  cpu time    1.5903: real time    3.1716
       DOS:  cpu time    0.0024: real time    0.0024
    CHARGE:  cpu time    4.4596: real time    8.9168
    MIXING:  cpu time    0.0317: real time    0.0690
    --------------------------------------------
      LOOP:  cpu time   71.8839: real time  143.8801

 eigenvalue-minimisations  : 10849
 total energy-change (2. order) : 0.1309875E-02  (-0.5376992E-03)
 number of electron     656.0000161 magnetization 
 augmentation part      172.9357282 magnetization 

 Broyden mixing:
  rms(total) = 0.74882E-02    rms(broyden)= 0.74785E-02
  rms(prec ) = 0.76984E-02
  weight for this iteration     100.00

 eigenvalues of (default mixing * dielectric matrix)
  average eigenvalue GAMMA=   1.6456
  2.8691  2.3012  2.0435  1.1516  1.1516  1.0012  1.0012

 Free energy of the ion-electron system (eV)
  ---------------------------------------------------
  alpha Z        PSCENC =      1009.80004948
  Ewald energy   TEWEN  =    475818.26566418
  -Hartree energ DENC   =   -533305.26126388
  -exchange      EXHF   =         0.00000000
  -V(xc)+E(xc)   XCENC  =      1759.46666867
  PAW double counting   =     45341.98776548   -51121.68970390
  entropy T*S    EENTRO =         0.00152960
  eigenvalues    EBANDS =     -7222.25322594
  atomic energy  EATOM  =     66988.42750902
  Solvation  Ediel_sol  =         0.00000000
  ---------------------------------------------------
  free energy    TOTEN  =      -731.25500728 eV

  energy without entropy =     -731.25653688  energy(sigma->0) =     -731.25551715


--------------------------------------------------------------------------------------------------------




----------------------------------------- Iteration    1(  13)  ---------------------------------------


    POTLOK:  cpu time   50.7911: real time  101.7555
    SETDIJ:  cpu time    0.0438: real time    0.1015
    EDDIAG:  cpu time    4.2247: real time    8.4608
  RMM-DIIS:  cpu time    9.3188: real time   18.6791
    ORTHCH:  cpu time    1.5194: real time    3.0426
       DOS:  cpu time    0.0030: real time    0.0084
    CHARGE:  cpu time    4.2589: real time    8.5089
    MIXING:  cpu time    0.0322: real time    0.0706
    --------------------------------------------
      LOOP:  cpu time   70.1940: real time  140.6323

 eigenvalue-minimisations  : 10646
 total energy-change (2. order) : 0.9391681E-03  (-0.1470055E-03)
 number of electron     656.0000161 magnetization 
 augmentation part      172.9276994 magnetization 

 Broyden mixing:
  rms(total) = 0.20922E-02    rms(broyden)= 0.20893E-02
  rms(prec ) = 0.22416E-02
  weight for this iteration     100.00

 eigenvalues of (default mixing * dielectric matrix)
  average eigenvalue GAMMA=   1.6543
  2.8783  2.5457  2.2408  1.2861  0.9764  0.9764  1.1653  1.1653

 Free energy of the ion-electron system (eV)
  ---------------------------------------------------
  alpha Z        PSCENC =      1009.80004948
  Ewald energy   TEWEN  =    475818.26566418
  -Hartree energ DENC   =   -533308.80087316
  -exchange      EXHF   =         0.00000000
  -V(xc)+E(xc)   XCENC  =      1759.59400378
  PAW double counting   =     45344.25404428   -51123.95434801
  entropy T*S    EENTRO =         0.00152955
  eigenvalues    EBANDS =     -7218.84164723
  atomic energy  EATOM  =     66988.42750902
  Solvation  Ediel_sol  =         0.00000000
  ---------------------------------------------------
  free energy    TOTEN  =      -731.25406812 eV

  energy without entropy =     -731.25559767  energy(sigma->0) =     -731.25457797


--------------------------------------------------------------------------------------------------------




----------------------------------------- Iteration    1(  14)  ---------------------------------------


    POTLOK:  cpu time   50.7248: real time  101.5047
    SETDIJ:  cpu time    0.0446: real time    0.0993
    EDDIAG:  cpu time    4.2715: real time    8.5584
  RMM-DIIS:  cpu time    8.8086: real time   17.6339
    ORTHCH:  cpu time    3.4742: real time    6.9836
       DOS:  cpu time    0.0069: real time    0.0152
    CHARGE:  cpu time    4.6844: real time    9.3663
    MIXING:  cpu time    0.0444: real time    0.0895
    --------------------------------------------
      LOOP:  cpu time   72.0603: real time  144.2523

 eigenvalue-minimisations  : 10839
 total energy-change (2. order) : 0.2525229E-03  (-0.1652020E-04)
 number of electron     656.0000161 magnetization 
 augmentation part      172.9303378 magnetization 

 Broyden mixing:
  rms(total) = 0.10056E-02    rms(broyden)= 0.10048E-02
  rms(prec ) = 0.11157E-02
  weight for this iteration     100.00

 eigenvalues of (default mixing * dielectric matrix)
  average eigenvalue GAMMA=   1.6936
  3.1810  2.4516  2.4516  1.8914  1.1295  1.1295  1.1498  0.9292  0.9292

 Free energy of the ion-electron system (eV)
  ---------------------------------------------------
  alpha Z        PSCENC =      1009.80004948
  Ewald energy   TEWEN  =    475818.26566418
  -Hartree energ DENC   =   -533308.75841513
  -exchange      EXHF   =         0.00000000
  -V(xc)+E(xc)   XCENC  =      1759.56198845
  PAW double counting   =     45342.38523335   -51122.04815522
  entropy T*S    EENTRO =         0.00153071
  eigenvalues    EBANDS =     -7218.88922043
  atomic energy  EATOM  =     66988.42750902
  Solvation  Ediel_sol  =         0.00000000
  ---------------------------------------------------
  free energy    TOTEN  =      -731.25381559 eV

  energy without entropy =     -731.25534630  energy(sigma->0) =     -731.25432583


--------------------------------------------------------------------------------------------------------




----------------------------------------- Iteration    1(  15)  ---------------------------------------


    POTLOK:  cpu time   50.7173: real time  101.5513
    SETDIJ:  cpu time    0.0428: real time    0.0926
    EDDIAG:  cpu time    4.2054: real time    8.4209
  RMM-DIIS:  cpu time    8.7832: real time   17.5704
    ORTHCH:  cpu time    1.5473: real time    3.0965
       DOS:  cpu time    0.0028: real time    0.0049
    CHARGE:  cpu time    4.2737: real time    8.5464
    MIXING:  cpu time    0.0321: real time    0.0674
    --------------------------------------------
      LOOP:  cpu time   69.6055: real time  139.3638

 eigenvalue-minimisations  :  9671
 total energy-change (2. order) :-0.1771771E-04  (-0.6058786E-05)
 number of electron     656.0000161 magnetization 
 augmentation part      172.9297112 magnetization 

 Broyden mixing:
  rms(total) = 0.39939E-03    rms(broyden)= 0.39905E-03
  rms(prec ) = 0.48495E-03
  weight for this iteration     100.00

 eigenvalues of (default mixing * dielectric matrix)
  average eigenvalue GAMMA=   1.6836
  3.2161  2.9370  2.3986  1.9193  1.1381  1.1381  1.1496  1.1496  0.9598  0.8296

 Free energy of the ion-electron system (eV)
  ---------------------------------------------------
  alpha Z        PSCENC =      1009.80004948
  Ewald energy   TEWEN  =    475818.26566418
  -Hartree energ DENC   =   -533309.79216233
  -exchange      EXHF   =         0.00000000
  -V(xc)+E(xc)   XCENC  =      1759.57545904
  PAW double counting   =     45342.67280211   -51122.32709775
  entropy T*S    EENTRO =         0.00153097
  eigenvalues    EBANDS =     -7217.87758803
  atomic energy  EATOM  =     66988.42750902
  Solvation  Ediel_sol  =         0.00000000
  ---------------------------------------------------
  free energy    TOTEN  =      -731.25383331 eV

  energy without entropy =     -731.25536428  energy(sigma->0) =     -731.25434363


--------------------------------------------------------------------------------------------------------




----------------------------------------- Iteration    1(  16)  ---------------------------------------


    POTLOK:  cpu time   50.5102: real time  101.0798
    SETDIJ:  cpu time    0.0445: real time    0.1020
    EDDIAG:  cpu time    4.2402: real time    8.4921
  RMM-DIIS:  cpu time    7.6362: real time   15.2906
    ORTHCH:  cpu time    1.5704: real time    3.1347
       DOS:  cpu time    0.0025: real time    0.0047
    CHARGE:  cpu time    4.1990: real time    8.3983
    MIXING:  cpu time    0.0340: real time    0.0716
    --------------------------------------------
      LOOP:  cpu time   68.2379: real time  136.5759

 eigenvalue-minimisations  :  8275
 total energy-change (2. order) :-0.6740743E-04  (-0.2382276E-05)
 number of electron     656.0000161 magnetization 
 augmentation part      172.9295855 magnetization 

 Broyden mixing:
  rms(total) = 0.27626E-03    rms(broyden)= 0.27615E-03
  rms(prec ) = 0.34363E-03
  weight for this iteration     100.00

 eigenvalues of (default mixing * dielectric matrix)
  average eigenvalue GAMMA=   1.7334
  3.8101  2.8828  2.3715  1.9283  1.9283  1.1149  1.1149  1.0422  1.0422  0.9997
  0.8329

 Free energy of the ion-electron system (eV)
  ---------------------------------------------------
  alpha Z        PSCENC =      1009.80004948
  Ewald energy   TEWEN  =    475818.26566418
  -Hartree energ DENC   =   -533310.22535985
  -exchange      EXHF   =         0.00000000
  -V(xc)+E(xc)   XCENC  =      1759.57704069
  PAW double counting   =     45342.63828700   -51122.29152426
  entropy T*S    EENTRO =         0.00153114
  eigenvalues    EBANDS =     -7217.44709812
  atomic energy  EATOM  =     66988.42750902
  Solvation  Ediel_sol  =         0.00000000
  ---------------------------------------------------
  free energy    TOTEN  =      -731.25390072 eV

  energy without entropy =     -731.25543186  energy(sigma->0) =     -731.25441110


--------------------------------------------------------------------------------------------------------




----------------------------------------- Iteration    1(  17)  ---------------------------------------


    POTLOK:  cpu time   50.6439: real time  101.3596
    SETDIJ:  cpu time    0.0423: real time    0.0878
    EDDIAG:  cpu time    4.1733: real time    8.3581
  RMM-DIIS:  cpu time    7.5909: real time   15.1970
    ORTHCH:  cpu time    1.5636: real time    3.1276
       DOS:  cpu time    0.0045: real time    0.0101
    CHARGE:  cpu time    4.2837: real time    8.5565
    MIXING:  cpu time    0.0338: real time    0.0726
    --------------------------------------------
      LOOP:  cpu time   68.3370: real time  136.7735

 eigenvalue-minimisations  :  8313
 total energy-change (2. order) :-0.9333433E-04  (-0.4563314E-05)
 number of electron     656.0000161 magnetization 
 augmentation part      172.9300764 magnetization 

 Broyden mixing:
  rms(total) = 0.27161E-03    rms(broyden)= 0.27151E-03
  rms(prec ) = 0.29892E-03
  weight for this iteration     100.00

 eigenvalues of (default mixing * dielectric matrix)
  average eigenvalue GAMMA=   1.7948
  4.3425  2.8091  2.5915  2.5915  1.5552  1.5552  1.1059  1.1059  1.0596  1.0596
  0.9136  0.8484

 Free energy of the ion-electron system (eV)
  ---------------------------------------------------
  alpha Z        PSCENC =      1009.80004948
  Ewald energy   TEWEN  =    475818.26566418
[...]
   -.255E+01 -.808E+01 0.168E+04   0.133E+02 0.408E+01 -.169E+04   -.107E+02 0.400E+01 0.959E+01   -.583E-04 -.202E-05 0.799E-04
   -.572E+01 0.625E+01 0.168E+04   -.311E+01 -.135E+02 -.169E+04   0.883E+01 0.730E+01 0.959E+01   0.274E-04 0.515E-04 0.799E-04
   -.513E+01 -.386E+00 0.169E+04   -.420E+01 -.763E+01 -.170E+04   0.934E+01 0.803E+01 0.111E+02   0.424E-04 0.155E-04 0.647E-04
   0.922E+01 -.188E+02 0.169E+04   -.193E+02 0.112E+02 -.170E+04   0.101E+02 0.758E+01 0.104E+02   0.448E-04 0.441E-05 0.720E-04
   -.107E+02 0.313E+02 0.101E+04   0.107E+02 -.351E+02 -.100E+04   -.149E+00 0.363E+01 -.118E+01   0.146E-04 0.207E-04 -.629E-04
   -.118E+02 0.320E+02 0.100E+04   0.115E+02 -.357E+02 -.100E+04   0.144E+00 0.347E+01 -.662E+00   0.514E-05 0.327E-04 -.826E-04
   -.110E+02 0.314E+02 0.100E+04   0.109E+02 -.352E+02 -.100E+04   -.140E+00 0.373E+01 -.103E+01   0.127E-04 0.209E-04 -.799E-04
   -.217E+02 -.252E+02 0.100E+04   0.250E+02 0.270E+02 -.100E+04   -.316E+01 -.198E+01 -.103E+01   -.245E-04 0.590E-06 -.799E-04
   -.218E+02 -.249E+02 0.101E+04   0.250E+02 0.268E+02 -.100E+04   -.307E+01 -.194E+01 -.118E+01   -.253E-04 0.228E-05 -.629E-04
   -.218E+02 -.262E+02 0.100E+04   0.251E+02 0.278E+02 -.100E+04   -.308E+01 -.161E+01 -.662E+00   -.309E-04 -.119E-04 -.826E-04
   0.325E+02 -.637E+01 0.101E+04   -.357E+02 0.830E+01 -.100E+04   0.322E+01 -.168E+01 -.118E+01   0.107E-04 -.230E-04 -.629E-04
   0.336E+02 -.581E+01 0.100E+04   -.366E+02 0.784E+01 -.100E+04   0.294E+01 -.186E+01 -.662E+00   0.258E-04 -.208E-04 -.826E-04
   0.327E+02 -.620E+01 0.100E+04   -.359E+02 0.817E+01 -.100E+04   0.330E+01 -.174E+01 -.103E+01   0.117E-04 -.215E-04 -.799E-04
   0.165E+02 0.286E+02 0.337E+03   -.169E+02 -.298E+02 -.336E+03   0.320E+00 0.104E+01 -.416E+00   0.143E-04 0.942E-05 -.739E-04
   0.163E+02 0.289E+02 0.337E+03   -.168E+02 -.300E+02 -.336E+03   0.360E+00 0.989E+00 -.424E+00   0.188E-04 0.220E-05 -.730E-04
   0.164E+02 0.286E+02 0.336E+03   -.168E+02 -.298E+02 -.336E+03   0.308E+00 0.107E+01 -.321E+00   0.161E-04 0.467E-05 -.730E-04
   0.168E+02 -.286E+02 0.337E+03   -.176E+02 0.295E+02 -.336E+03   0.677E+00 -.806E+00 -.424E+00   -.750E-05 -.174E-04 -.730E-04
   0.166E+02 -.286E+02 0.336E+03   -.174E+02 0.295E+02 -.336E+03   0.770E+00 -.800E+00 -.321E+00   -.401E-05 -.163E-04 -.730E-04
   0.166E+02 -.286E+02 0.337E+03   -.174E+02 0.295E+02 -.336E+03   0.745E+00 -.799E+00 -.416E+00   0.102E-05 -.171E-04 -.739E-04
   -.330E+02 -.677E-01 0.336E+03   0.342E+02 0.318E+00 -.336E+03   -.108E+01 -.267E+00 -.321E+00   -.121E-04 0.116E-04 -.730E-04
   -.330E+02 -.469E-01 0.337E+03   0.342E+02 0.286E+00 -.336E+03   -.106E+01 -.245E+00 -.416E+00   -.153E-04 0.766E-05 -.739E-04
   -.332E+02 -.284E+00 0.337E+03   0.343E+02 0.481E+00 -.336E+03   -.104E+01 -.183E+00 -.424E+00   -.113E-04 0.152E-04 -.730E-04
   0.330E+02 0.469E-01 -.337E+03   -.342E+02 -.286E+00 0.336E+03   0.106E+01 0.245E+00 0.416E+00   0.153E-04 -.766E-05 0.739E-04
   0.330E+02 0.677E-01 -.336E+03   -.342E+02 -.318E+00 0.336E+03   0.108E+01 0.267E+00 0.321E+00   0.121E-04 -.116E-04 0.730E-04
   0.332E+02 0.284E+00 -.337E+03   -.343E+02 -.481E+00 0.336E+03   0.104E+01 0.183E+00 0.424E+00   0.113E-04 -.152E-04 0.730E-04
   -.166E+02 0.286E+02 -.336E+03   0.174E+02 -.295E+02 0.336E+03   -.770E+00 0.800E+00 0.321E+00   0.401E-05 0.163E-04 0.730E-04
   -.168E+02 0.286E+02 -.337E+03   0.176E+02 -.295E+02 0.336E+03   -.677E+00 0.806E+00 0.424E+00   0.750E-05 0.174E-04 0.730E-04
   -.166E+02 0.286E+02 -.337E+03   0.174E+02 -.295E+02 0.336E+03   -.745E+00 0.799E+00 0.416E+00   -.102E-05 0.171E-04 0.739E-04
   -.163E+02 -.289E+02 -.337E+03   0.168E+02 0.300E+02 0.336E+03   -.360E+00 -.989E+00 0.424E+00   -.188E-04 -.220E-05 0.730E-04
   -.165E+02 -.286E+02 -.337E+03   0.169E+02 0.298E+02 0.336E+03   -.320E+00 -.104E+01 0.416E+00   -.143E-04 -.942E-05 0.739E-04
   -.164E+02 -.286E+02 -.336E+03   0.168E+02 0.298E+02 0.336E+03   -.308E+00 -.107E+01 0.321E+00   -.161E-04 -.467E-05 0.730E-04
   0.110E+02 -.314E+02 -.100E+04   -.109E+02 0.352E+02 0.100E+04   0.140E+00 -.373E+01 0.103E+01   -.127E-04 -.209E-04 0.799E-04
   0.118E+02 -.320E+02 -.100E+04   -.115E+02 0.357E+02 0.100E+04   -.144E+00 -.347E+01 0.662E+00   -.514E-05 -.327E-04 0.826E-04
   0.107E+02 -.313E+02 -.101E+04   -.107E+02 0.351E+02 0.100E+04   0.149E+00 -.363E+01 0.118E+01   -.146E-04 -.207E-04 0.629E-04
   -.327E+02 0.620E+01 -.100E+04   0.359E+02 -.817E+01 0.100E+04   -.330E+01 0.174E+01 0.103E+01   -.117E-04 0.215E-04 0.799E-04
   -.336E+02 0.581E+01 -.100E+04   0.366E+02 -.784E+01 0.100E+04   -.294E+01 0.186E+01 0.662E+00   -.258E-04 0.208E-04 0.826E-04
   -.325E+02 0.637E+01 -.101E+04   0.357E+02 -.830E+01 0.100E+04   -.322E+01 0.168E+01 0.118E+01   -.107E-04 0.230E-04 0.629E-04
   0.218E+02 0.249E+02 -.101E+04   -.250E+02 -.268E+02 0.100E+04   0.307E+01 0.194E+01 0.118E+01   0.253E-04 -.228E-05 0.629E-04
   0.217E+02 0.252E+02 -.100E+04   -.250E+02 -.270E+02 0.100E+04   0.316E+01 0.198E+01 0.103E+01   0.245E-04 -.590E-06 0.799E-04
   0.218E+02 0.262E+02 -.100E+04   -.251E+02 -.278E+02 0.100E+04   0.308E+01 0.161E+01 0.662E+00   0.309E-04 0.119E-04 0.826E-04
   0.513E+01 0.386E+00 -.169E+04   0.420E+01 0.763E+01 0.170E+04   -.934E+01 -.803E+01 -.111E+02   -.424E-04 -.155E-04 -.647E-04
   0.572E+01 -.625E+01 -.168E+04   0.311E+01 0.135E+02 0.169E+04   -.883E+01 -.730E+01 -.959E+01   -.274E-04 -.515E-04 -.799E-04
   -.922E+01 0.188E+02 -.169E+04   0.193E+02 -.112E+02 0.170E+04   -.101E+02 -.758E+01 -.104E+02   -.448E-04 -.441E-05 -.720E-04
   -.116E+02 -.174E+02 -.169E+04   0.374E-01 0.223E+02 0.170E+04   0.116E+02 -.494E+01 -.104E+02   0.262E-04 -.366E-04 -.720E-04
   -.290E+01 0.425E+01 -.169E+04   -.871E+01 -.176E+00 0.170E+04   0.116E+02 -.408E+01 -.111E+02   0.346E-04 -.290E-04 -.647E-04
   0.255E+01 0.808E+01 -.168E+04   -.133E+02 -.408E+01 0.169E+04   0.107E+02 -.400E+01 -.959E+01   0.583E-04 0.202E-05 -.799E-04
   -.827E+01 -.183E+01 -.168E+04   0.102E+02 -.947E+01 0.169E+04   -.190E+01 0.113E+02 -.959E+01   -.309E-04 0.494E-04 -.799E-04
   0.208E+02 -.139E+01 -.169E+04   -.193E+02 -.111E+02 0.170E+04   -.152E+01 0.125E+02 -.104E+02   0.186E-04 0.410E-04 -.720E-04
   -.223E+01 -.464E+01 -.169E+04   0.451E+01 -.746E+01 0.170E+04   -.228E+01 0.121E+02 -.111E+02   0.776E-05 0.445E-04 -.647E-04
   0.950E-05 0.464E-05 -.524E+04   -.166E-10 0.166E-09 0.524E+04   -.555E-16 0.278E-16 0.269E+01   -.899E-09 -.253E-08 -.352E-03
   0.146E+02 -.256E+02 -.525E+04   -.174E+02 0.248E+02 0.525E+04   0.278E+01 0.728E+00 0.361E+01   0.190E-04 0.513E-04 -.257E-03
   0.148E+02 0.255E+02 -.525E+04   -.128E+02 -.275E+02 0.525E+04   -.202E+01 0.204E+01 0.361E+01   -.539E-04 -.916E-05 -.257E-03
   -.295E+02 0.109E+00 -.525E+04   0.302E+02 0.266E+01 0.525E+04   -.760E+00 -.277E+01 0.361E+01   0.349E-04 -.421E-04 -.257E-03
   -.261E+02 -.702E+01 -.591E+04   0.263E+02 0.895E+01 0.592E+04   -.241E+00 -.193E+01 -.926E+01   0.186E-04 -.109E-04 -.232E-03
   0.191E+02 -.191E+02 -.591E+04   -.209E+02 0.183E+02 0.592E+04   0.179E+01 0.758E+00 -.926E+01   0.158E-06 0.216E-04 -.232E-03
   0.197E-05 0.931E-06 -.615E+04   0.274E-11 0.526E-11 0.616E+04   0.694E-17 0.139E-16 -.105E+02   -.238E-08 -.172E-08 -.925E-04
   0.695E+01 0.261E+02 -.591E+04   -.540E+01 -.273E+02 0.592E+04   -.155E+01 0.117E+01 -.926E+01   -.188E-04 -.106E-04 -.232E-03
   -.950E-05 -.464E-05 0.524E+04   -.398E-10 0.191E-09 -.524E+04   0.555E-16 0.000E+00 -.269E+01   0.899E-09 0.253E-08 0.352E-03
   -.146E+02 0.256E+02 0.525E+04   0.174E+02 -.248E+02 -.525E+04   -.278E+01 -.728E+00 -.361E+01   -.190E-04 -.513E-04 0.257E-03
   -.148E+02 -.255E+02 0.525E+04   0.128E+02 0.275E+02 -.525E+04   0.202E+01 -.204E+01 -.361E+01   0.539E-04 0.916E-05 0.257E-03
   0.295E+02 -.109E+00 0.525E+04   -.302E+02 -.266E+01 -.525E+04   0.760E+00 0.277E+01 -.361E+01   -.349E-04 0.421E-04 0.257E-03
   0.261E+02 0.702E+01 0.591E+04   -.263E+02 -.895E+01 -.592E+04   0.241E+00 0.193E+01 0.926E+01   -.186E-04 0.109E-04 0.232E-03
   -.191E+02 0.191E+02 0.591E+04   0.209E+02 -.183E+02 -.592E+04   -.179E+01 -.758E+00 0.926E+01   -.158E-06 -.216E-04 0.232E-03
   -.197E-05 -.931E-06 0.615E+04   0.269E-10 0.434E-10 -.616E+04   0.694E-17 -.139E-16 0.105E+02   0.238E-08 0.172E-08 0.925E-04
   -.695E+01 -.261E+02 0.591E+04   0.540E+01 0.273E+02 -.592E+04   0.155E+01 -.117E+01 0.926E+01   0.188E-04 0.106E-04 0.232E-03
 -----------------------------------------------------------------------------------------------
   0.650E-09 0.381E-09 -.128E-07   0.225E-12 0.000E+00 -.728E-11   0.422E-14 -.400E-14 -.533E-14   0.451E-12 -.417E-12 0.715E-10
 
 
 POSITION                                       TOTAL-FORCE (eV/Angst)
 -----------------------------------------------------------------------------------
      0.02904      2.72212     13.90289        -0.000392      0.001242     -0.001767
      4.72609      2.76214     13.90289        -0.000879     -0.000961     -0.001767
      2.34291      6.80990     13.90289         0.001272     -0.000281     -0.001767
      0.00000      0.00000     15.19717         0.000000      0.000000     -0.157215
      4.73202      0.00000     15.19717         0.000000      0.000000     -0.294200
      2.36601      4.09805     15.19717         0.000000      0.000000     -0.124047
      2.36601      1.36602     15.46303        -0.028295      0.055209     -0.061163
      0.00000      5.46407     15.46303         0.061960     -0.003100     -0.061163
      4.73202     -2.73204     15.46303        -0.033665     -0.052109     -0.061163
      0.00000      2.73204     17.34206         0.069442      0.027614     -0.434238
      4.73202      2.73204     17.34206        -0.058635      0.046332     -0.434238
      2.36601     -1.36602     17.34206        -0.010807     -0.073945     -0.434238
      0.00000      0.00000     17.78589         0.000000      0.000000      0.010162
      4.73202      0.00000     17.78589         0.000000      0.000000      0.075709
      2.36601      4.09805     17.78589         0.000000      0.000000     -0.044694
      2.36601      1.36602     19.45363        -0.002201      0.002521     -0.080028
      0.00000      5.46407     19.45363         0.003284      0.000646     -0.080028
      4.73202     -2.73204     19.45363        -0.001083     -0.003167     -0.080028
      0.00000      2.73204     19.96447        -0.003284     -0.000646      0.080028
      4.73202      2.73204     19.96447         0.002201     -0.002521      0.080028
      2.36601     -1.36602     19.96447         0.001083      0.003167      0.080028
      0.00000      0.00000     21.63221         0.000000      0.000000     -0.010162
      4.73202      0.00000     21.63221         0.000000      0.000000      0.044694
      2.36601      4.09805     21.63221         0.000000      0.000000     -0.075709
      2.36601      1.36602     22.07604         0.058635     -0.046332      0.434238
      0.00000      5.46407     22.07604        -0.069442     -0.027614      0.434238
      4.73202     -2.73204     22.07604         0.010807      0.073945      0.434238
      0.00000      2.73204     23.95507        -0.061960      0.003100      0.061163
      4.73202      2.73204     23.95507         0.028295     -0.055209      0.061163
      2.36601     -1.36602     23.95507         0.033665      0.052109      0.061163
      0.00000      0.00000     24.22093         0.000000      0.000000      0.157215
      4.73202      0.00000     24.22093         0.000000      0.000000      0.124047
      2.36601      4.09805     24.22093         0.000000      0.000000      0.294200
      2.37194      1.33591     25.51521         0.000879      0.000961      0.001767
      7.06900      1.37593     25.51521         0.000392     -0.001242      0.001767
      4.75513     -2.71185     25.51521        -0.001272      0.000281      0.001767
      1.56153      0.09535     14.25962         0.003348     -0.008166      0.002824
      6.29978      0.08491     14.27347        -0.000976     -0.001689      0.000038
      3.92770      4.21857     14.28801         0.004216     -0.005496      0.007382
      1.68954      2.68534     14.28801        -0.006868     -0.000903      0.007382
      6.39985      2.69805     14.25962        -0.008747      0.001184      0.002824
      4.02168     -1.40017     14.27347        -0.000975      0.001690      0.000038
      3.87461      1.31526     14.27347         0.001951     -0.000001      0.000038
      1.48080      5.39025     14.28801         0.002652      0.006399      0.007382
      6.23469     -2.79341     14.25962         0.005398      0.006983      0.002824
      5.46895     -1.27407     16.46399        -0.217371     -0.119252     -0.345565
      3.10294      2.82398     16.46399        -0.099949     -0.159759     -0.138938
      0.73693      6.92203     16.46399        -0.221162     -0.076931     -0.272733
      0.73491      1.27523     16.46399         0.177205     -0.153067     -0.272733
      5.46694      1.27523     16.46399         0.211961     -0.128623     -0.345565
      3.10093      5.37329     16.46399         0.188330     -0.006679     -0.138938
      3.26018     -0.00116     16.46399         0.005410      0.247875     -0.345565
      0.89417      4.09689     16.46399        -0.088381      0.166438     -0.138938
      5.62619      4.09689     16.46399         0.043957      0.229997     -0.272733
      6.37930     -2.62306     18.63401        -0.073533     -0.114730     -0.009795
      4.01328      1.47499     18.63401        -0.060432     -0.132230     -0.013794
      1.64727      5.57304     18.63401        -0.079738     -0.105925      0.019718
      6.36877     -0.11505     18.63401        -0.084299      0.118451     -0.013794
      4.00276      3.98300     18.63401        -0.051864      0.122018      0.019718
      1.63675     -0.11505     18.63401        -0.062592      0.121047     -0.009795
      1.44800      2.73811     18.63401         0.131603     -0.016093      0.019718
      6.18003      2.73811     18.63401         0.136126     -0.006317     -0.009795
      3.81401     -1.35994     18.63401         0.144731      0.013780     -0.013794
      0.91801      1.35994     20.78409        -0.136126      0.006317      0.009795
      5.65003      1.35994     20.78409        -0.131603      0.016093     -0.019718
      3.28402      5.45800     20.78409        -0.144731     -0.013780      0.013794
      3.09527      0.11505     20.78409         0.051864     -0.122018     -0.019718
      0.72926      4.21310     20.78409         0.084299     -0.118451      0.013794
      5.46129      4.21310     20.78409         0.062592     -0.121047      0.009795
      3.08475      2.62306     20.78409         0.060432      0.132230      0.013794
      0.71874      6.72111     20.78409         0.073533      0.114730      0.009795
      5.45076     -1.47499     20.78409         0.079738      0.105925     -0.019718
      6.36111     -2.82398     22.95412         0.221162      0.076931      0.272733
      3.99509      1.27407     22.95412         0.099949      0.159759      0.138938
      1.62908      5.37212     22.95412         0.217371      0.119252      0.345565
      1.47184      0.00116     22.95412        -0.043957     -0.229997      0.272733
      6.20387      0.00116     22.95412         0.088381     -0.166438      0.138938
      3.83785      4.09922     22.95412        -0.005410     -0.247875      0.345565
      1.63110      2.82282     22.95412        -0.211961      0.128623      0.345565
      6.36312      2.82282     22.95412        -0.177205      0.153067      0.272733
      3.99711     -1.27523     22.95412        -0.188330      0.006679      0.138938
      5.61724     -1.29220     25.13009        -0.002652     -0.006399     -0.007382
      3.22343      2.78279     25.14463        -0.001951      0.000001     -0.000038
      0.86334      6.89146     25.15848        -0.005398     -0.006983     -0.002824
      0.69818      1.40000     25.15848         0.008747     -0.001184     -0.002824
      5.40850      1.41272     25.13009         0.006868      0.000903     -0.007382
      3.07635      5.49823     25.14463         0.000975     -0.001690     -0.000038
      0.79825      4.01314     25.14463         0.000976      0.001689     -0.000038
      5.53651      4.00270     25.15848        -0.003348      0.008166     -0.002824
      3.17034     -0.12052     25.13009        -0.004216      0.005496     -0.007382
      0.00000      0.00000     27.86916         0.000000      0.000000      0.004450
      3.38637      6.12349     27.95171         0.000557     -0.000024      0.000895
      0.10176      3.96899     27.95171        -0.000258      0.000495      0.000895
      3.60991      2.20168     27.95171        -0.000299     -0.000471      0.000895
      2.38026      0.12475     28.58406        -0.000039     -0.001951     -0.006246
      5.79987     -2.09906     28.58406         0.001709      0.000942     -0.006246
      2.36601      4.09805     28.97854         0.000000      0.000000     -0.003451
      6.01594      1.97431     28.58406        -0.001670      0.001009     -0.006246
      0.00000      0.00000     11.54894         0.000000      0.000000     -0.004450
      3.71167     -2.02544     11.46640        -0.000557      0.000024     -0.000895
      6.99628      0.12907     11.46640         0.000258     -0.000495     -0.000895
      3.48812      1.89637     11.46640         0.000299      0.000471     -0.000895
      4.71778      3.97331     10.83404         0.000039      0.001951      0.006246
      1.29816      6.19711     10.83404        -0.001709     -0.000942      0.006246
      4.73202     -0.00000     10.43956         0.000000      0.000000      0.003451
      1.08210      2.12374     10.83404         0.001670     -0.001009      0.006246
 -----------------------------------------------------------------------------------
    total drift:                                0.000000      0.000000     -0.000000


--------------------------------------------------------------------------------------------------------



  FREE ENERGIE OF THE ION-ELECTRON SYSTEM (eV)
  ---------------------------------------------------
  free  energy   TOTEN  =      -731.25404510 eV

  energy  without entropy=     -731.25557679  energy(sigma->0) =     -731.25455567
 


--------------------------------------------------------------------------------------------------------


    POTLOK:  cpu time   50.4620: real time  100.9788


--------------------------------------------------------------------------------------------------------


 stress matrix after NEB project (eV)
     41.66036      0.00000     -0.00000
     -0.00000     41.66036     -0.00000
      0.00000      0.00000     -2.76324
  FORCES: max atom, RMS     0.010123    0.003773
  FORCE total and by dimension    0.038845    0.008747
  Stress total and by dimension   58.981415   41.660364
     LOOP+:  cpu time 1430.6170: real time 2863.7014
    4ORBIT:  cpu time    0.0000: real time    0.0000

 total amount of memory used by VASP MPI-rank0   877326. kBytes
=======================================================================

   base      :      30000. kBytes
   nonlr-proj:      46657. kBytes
   fftplans  :      56155. kBytes
   grid      :     132596. kBytes
   one-center:       1648. kBytes
   wavefun   :     610270. kBytes
 
  
  
 General timing and accounting informations for this job:
 ========================================================
  
                  Total CPU time used (sec):     1451.876
                            User time (sec):     1389.400
                          System time (sec):       62.476
                         Elapsed time (sec):     2909.609
  
                   Maximum memory used (kb):     2885488.
                   Average memory used (kb):           0.
  
                          Minor page faults:      4734230
                          Major page faults:            0
                 Voluntary context switches:        40508
