<?xml version="1.0" encoding="ISO-8859-1"?>
<modeling>
 <generator>
  <i name="program" type="string">vasp </i>
  <i name="version" type="string">5.4.4.18Apr17-6-g9f103f2a35  </i>
  <i name="subversion" type="string">(build Aug 13 2022 23:40:43) complex            parallel </i>
  <i name="platform" type="string">LinuxIFC </i>
  <i name="date" type="string">2024 11 10 </i>
  <i name="time" type="string">04:03:40 </i>
 </generator>
 <incar>
  <i type="int" name="ISTART">     1</i>
  <i type="string" name="PREC">accurate</i>
  <i type="string" name="ALGO"> F          N:DAV,fine,slow</i>
  <i type="logical" name="ADDGRID"> T  </i>
  <i type="int" name="ISPIN">     1</i>
  <i type="int" name="ICHARG">     1</i>
  <i type="int" name="NELM">   300</i>
  <i type="int" name="IBRION">    -1</i>
  <i name="EDIFF">      0.00001000</i>
  <i name="EDIFFG">     -0.00100000</i>
  <i type="int" name="NSW">     1</i>
  <i type="int" name="ISIF">     2</i>
  <i name="ENCUT">    400.00000000</i>
  <i type="logical" name="LREAL"> F  </i>
  <i type="int" name="ISMEAR">     0</i>
  <i name="SIGMA">      0.05000000</i>
  <i type="logical" name="LWAVE"> F  </i>
  <i type="logical" name="LCHARG"> F  </i>
  <v type="int" name="KPOINT_BSE">    -1     0     0     0</v>
  <i type="int" name="NELM">   300</i>
 </incar>
 <structure name="primitive_cell" >
  <crystal>
   <varray name="basis" >
    <v>      12.30000019       0.00000000       0.00000000 </v>
    <v>       6.15000080      10.65211222       0.00000000 </v>
    <v>       0.00000000       0.00000000      20.00000000 </v>
   </varray>
   <i name="volume">   2620.41964732 </i>
   <varray name="rec_basis" >
    <v>       0.08130081      -0.04693905       0.00000000 </v>
    <v>       0.00000000       0.09387809       0.00000000 </v>
    <v>       0.00000000       0.00000000       0.05000000 </v>
   </varray>
  </crystal>
  <varray name="positions" >
   <v>       0.00000000       0.00000000       0.41799748 </v>
   <v>       0.06666667       0.06666660       0.41800609 </v>
   <v>      -0.13333333       0.06666660       0.41800609 </v>
   <v>       0.06666667      -0.13333340       0.41800609 </v>
   <v>      -0.20000000       0.20000000       0.41799748 </v>
   <v>       0.20000000      -0.20000000       0.41799748 </v>
   <v>       0.20000000       0.00000000       0.41799748 </v>
   <v>      -0.20000000       0.00000000       0.41799748 </v>
   <v>       0.00000000       0.20000000       0.41799748 </v>
   <v>       0.00000000      -0.20000000       0.41799748 </v>
   <v>      -0.13333333       0.26666660       0.41800609 </v>
   <v>       0.26666667      -0.13333340       0.41800609 </v>
   <v>      -0.13333333      -0.13333340       0.41800609 </v>
   <v>       0.06666667       0.26666660       0.41800609 </v>
   <v>      -0.33333333       0.26666660       0.41800609 </v>
   <v>       0.26666667       0.06666660       0.41800609 </v>
   <v>      -0.33333333       0.06666660       0.41800609 </v>
   <v>       0.26666667      -0.33333340       0.41800609 </v>
   <v>       0.06666667      -0.33333340       0.41800609 </v>
   <v>      -0.40000000       0.20000000       0.41799748 </v>
   <v>       0.40000000      -0.20000000       0.41799748 </v>
   <v>      -0.20000000       0.40000000       0.41799748 </v>
   <v>       0.20000000      -0.40000000       0.41799748 </v>
   <v>       0.20000000       0.20000000       0.41799748 </v>
   <v>      -0.20000000      -0.20000000       0.41799748 </v>
   <v>      -0.40000000       0.40000000       0.41799748 </v>
   <v>       0.40000000      -0.40000000       0.41799748 </v>
   <v>       0.40000000       0.00000000       0.41799748 </v>
   <v>      -0.40000000       0.00000000       0.41799748 </v>
   <v>       0.00000000       0.40000000       0.41799748 </v>
   <v>       0.00000000      -0.40000000       0.41799748 </v>
   <v>      -0.13333333       0.46666660       0.41800609 </v>
   <v>      -0.33333333       0.46666660       0.41800609 </v>
   <v>       0.46666667      -0.13333340       0.41800609 </v>
   <v>       0.46666667      -0.33333340       0.41800609 </v>
   <v>      -0.33333333      -0.13333340       0.41800609 </v>
   <v>      -0.13333333      -0.33333340       0.41800609 </v>
   <v>       0.26666667       0.26666660       0.41800609 </v>
   <v>       0.46666667       0.26666660       0.41800609 </v>
   <v>       0.26666667       0.46666660       0.41800609 </v>
   <v>       0.06666667       0.46666660       0.41800609 </v>
   <v>       0.46666667       0.46666660       0.41800609 </v>
   <v>       0.46666667       0.06666660       0.41800609 </v>
   <v>       0.40000000       0.40000000       0.41799748 </v>
   <v>      -0.40000000      -0.40000000       0.41799748 </v>
   <v>       0.40000000       0.20000000       0.41799748 </v>
   <v>      -0.40000000      -0.20000000       0.41799748 </v>
   <v>       0.20000000       0.40000000       0.41799748 </v>
   <v>      -0.20000000      -0.40000000       0.41749748 </v>
   <v>       0.40000000       0.40000000       0.46800609 </v>
   <v>      -0.33333333      -0.33333340       0.41800609 </v>
  </varray>
 </structure>
 <varray name="primitive_index" >
  <v type="int" >        1 </v>
  <v type="int" >       26 </v>
  <v type="int" >       30 </v>
  <v type="int" >       46 </v>
  <v type="int" >       10 </v>
  <v type="int" >       22 </v>
  <v type="int" >        2 </v>
  <v type="int" >        5 </v>
  <v type="int" >        6 </v>
  <v type="int" >       21 </v>
  <v type="int" >       35 </v>
  <v type="int" >       47 </v>
  <v type="int" >       50 </v>
  <v type="int" >       31 </v>
  <v type="int" >       34 </v>
  <v type="int" >       27 </v>
  <v type="int" >       29 </v>
  <v type="int" >       42 </v>
  <v type="int" >       41 </v>
  <v type="int" >        9 </v>
  <v type="int" >       23 </v>
  <v type="int" >       15 </v>
  <v type="int" >       17 </v>
  <v type="int" >        7 </v>
  <v type="int" >       25 </v>
  <v type="int" >       14 </v>
  <v type="int" >       18 </v>
  <v type="int" >        3 </v>
  <v type="int" >        4 </v>
  <v type="int" >       11 </v>
  <v type="int" >       16 </v>
  <v type="int" >       40 </v>
  <v type="int" >       39 </v>
  <v type="int" >       48 </v>
  <v type="int" >       43 </v>
  <v type="int" >       49 </v>
  <v type="int" >       45 </v>
  <v type="int" >       32 </v>
  <v type="int" >       33 </v>
  <v type="int" >       37 </v>
  <v type="int" >       36 </v>
  <v type="int" >       38 </v>
  <v type="int" >       28 </v>
  <v type="int" >       13 </v>
  <v type="int" >       19 </v>
  <v type="int" >        8 </v>
  <v type="int" >       24 </v>
  <v type="int" >       12 </v>
  <v type="int" >       20 </v>
  <v type="int" >       51 </v>
  <v type="int" >       44 </v>
 </varray>
 <kpoints>
  <generation param="Gamma">
   <v type="int" name="divisions">       3        3        1 </v>
   <v name="usershift">      0.00000000       0.00000000       0.00000000 </v>
   <v name="genvec1">      0.33333333      -0.00000000       0.00000000 </v>
   <v name="genvec2">      0.00000000       0.33333333       0.00000000 </v>
   <v name="genvec3">      0.00000000       0.00000000       1.00000000 </v>
   <v name="shift">      0.00000000       0.00000000       0.00000000 </v>
  </generation>
  <varray name="kpointlist" >
   <v>       0.00000000       0.00000000       0.00000000 </v>
   <v>       0.33333333       0.00000000       0.00000000 </v>
   <v>       0.00000000       0.33333333       0.00000000 </v>
   <v>      -0.33333333       0.33333333       0.00000000 </v>
  </varray>
  <varray name="weights" >
   <v>       0.11111111 </v>
   <v>       0.44444444 </v>
   <v>       0.22222222 </v>
   <v>       0.22222222 </v>
  </varray>
 </kpoints>
 <parameters>
  <separator name="general" >
   <i type="string" name="SYSTEM"></i>
   <i type="logical" name="LCOMPAT"> F  </i>
  </separator>
  <separator name="electronic" >
   <i type="string" name="PREC">accura</i>
   <i name="ENMAX">    400.00000000</i>
   <i name="ENAUG">    644.87300000</i>
   <i name="EDIFF">      0.00001000</i>
   <i type="int" name="IALGO">    68</i>
   <i type="int" name="IWAVPR">    10</i>
   <i type="int" name="NBANDS">   132</i>
   <i name="NELECT">    206.00000000</i>
   <i type="int" name="TURBO">     0</i>
   <i type="int" name="IRESTART">     0</i>
   <i type="int" name="NREBOOT">     0</i>
   <i type="int" name="NMIN">     0</i>
   <i name="EREF">      0.00000000</i>
   <separator name="electronic smearing" >
    <i type="int" name="ISMEAR">     0</i>
    <i name="SIGMA">      0.05000000</i>
    <i name="KSPACING">      0.50000000</i>
    <i type="logical" name="KGAMMA"> T  </i>
   </separator>
   <separator name="electronic projectors" >
    <i type="logical" name="LREAL"> F  </i>
    <v name="ROPT">      0.00000000      0.00000000</v>
    <i type="int" name="LMAXPAW">  -100</i>
    <i type="int" name="LMAXMIX">     2</i>
    <i type="logical" name="NLSPLINE"> F  </i>
   </separator>
   <separator name="electronic startup" >
    <i type="int" name="ISTART">     1</i>
    <i type="int" name="ICHARG">     1</i>
    <i type="int" name="INIWAV">     1</i>
   </separator>
   <separator name="electronic spin" >
    <i type="int" name="ISPIN">     1</i>
    <i type="logical" name="LNONCOLLINEAR"> F  </i>
    <v name="MAGMOM">      1.00000000      1.00000000      1.00000000      1.00000000      1.00000000      1.00000000      1.00000000      1.00000000      1.00000000      1.00000000      1.00000000      1.00000000      1.00000000      1.00000000      1.00000000      1.00000000      1.00000000      1.00000000      1.00000000      1.00000000
      1.00000000      1.00000000      1.00000000      1.00000000      1.00000000      1.00000000      1.00000000      1.00000000      1.00000000      1.00000000      1.00000000      1.00000000      1.00000000      1.00000000      1.00000000      1.00000000      1.00000000      1.00000000      1.00000000      1.00000000
      1.00000000      1.00000000      1.00000000      1.00000000      1.00000000      1.00000000      1.00000000      1.00000000      1.00000000      1.00000000      1.00000000</v>
    <i name="NUPDOWN">     -1.00000000</i>
    <i type="logical" name="LSORBIT"> F  </i>
    <v name="SAXIS">      0.00000000      0.00000000      1.00000000</v>
    <i type="logical" name="LSPIRAL"> F  </i>
    <v name="QSPIRAL">      0.00000000      0.00000000      0.00000000</v>
    <i type="logical" name="LZEROZ"> F  </i>
   </separator>
   <separator name="electronic exchange-correlation" >
    <i type="logical" name="LASPH"> F  </i>
    <i type="logical" name="LMETAGGA"> F  </i>
   </separator>
   <separator name="electronic convergence" >
    <i type="int" name="NELM">   300</i>
    <i type="int" name="NELMDL">     0</i>
    <i type="int" name="NELMIN">     2</i>
    <i name="ENINI">    400.00000000</i>
    <separator name="electronic convergence detail" >
     <i type="logical" name="LDIAG"> T  </i>
     <i type="logical" name="LSUBROT"> F  </i>
     <i name="WEIMIN">      0.00000000</i>
     <i name="EBREAK">      0.00000002</i>
     <i name="DEPER">      0.30000000</i>
     <i type="int" name="NRMM">     4</i>
     <i name="TIME">      0.40000000</i>
    </separator>
   </separator>
   <separator name="electronic mixer" >
    <i name="AMIX">      0.40000000</i>
    <i name="BMIX">      1.00000000</i>
    <i name="AMIN">      0.10000000</i>
    <i name="AMIX_MAG">      1.60000000</i>
    <i name="BMIX_MAG">      1.00000000</i>
    <separator name="electronic mixer details" >
     <i type="int" name="IMIX">     4</i>
     <i type="logical" name="MIXFIRST"> F  </i>
     <i type="int" name="MAXMIX">   -45</i>
     <i name="WC">    100.00000000</i>
     <i type="int" name="INIMIX">     1</i>
     <i type="int" name="MIXPRE">     1</i>
     <i type="int" name="MREMOVE">     5</i>
    </separator>
   </separator>
   <separator name="electronic dipolcorrection" >
    <i type="logical" name="LDIPOL"> F  </i>
    <i type="logical" name="LMONO"> F  </i>
    <i type="int" name="IDIPOL">     0</i>
    <i name="EPSILON">      1.00000000</i>
    <v name="DIPOL">   -100.00000000   -100.00000000   -100.00000000</v>
    <i name="EFIELD">      0.00000000</i>
   </separator>
  </separator>
  <separator name="grids" >
   <i type="int" name="NGX">    80</i>
   <i type="int" name="NGY">    80</i>
   <i type="int" name="NGZ">   140</i>
   <i type="int" name="NGXF">   160</i>
   <i type="int" name="NGYF">   160</i>
   <i type="int" name="NGZF">   280</i>
   <i type="logical" name="ADDGRID"> T  </i>
  </separator>
  <separator name="ionic" >
   <i type="int" name="NSW">     1</i>
   <i type="int" name="IBRION">    -1</i>
   <i type="int" name="MDALGO">     0</i>
   <i type="int" name="ISIF">     2</i>
   <i name="PSTRESS">      0.00000000</i>
   <i name="EDIFFG">     -0.00100000</i>
   <i type="int" name="NFREE">     0</i>
   <i name="POTIM">      0.50000000</i>
   <i name="SMASS">     -3.00000000</i>
   <i name="SCALEE">      1.00000000</i>
  </separator>
  <separator name="ionic md" >
   <i name="TEBEG">      0.00010000</i>
   <i name="TEEND">      0.00010000</i>
   <i type="int" name="NBLOCK">     1</i>
   <i type="int" name="KBLOCK">     1</i>
   <i type="int" name="NPACO">   256</i>
   <i name="APACO">     16.00000000</i>
  </separator>
  <separator name="symmetry" >
   <i type="int" name="ISYM">     2</i>
   <i name="SYMPREC">      0.00001000</i>
  </separator>
  <separator name="dos" >
   <i type="int" name="LORBIT">     0</i>
   <v name="RWIGS">     -1.00000000     -1.00000000</v>
   <i type="int" name="NEDOS">   301</i>
   <i name="EMIN">     10.00000000</i>
   <i name="EMAX">    -10.00000000</i>
   <i name="EFERMI">      0.00000000</i>
  </separator>
  <separator name="writing" >
   <i type="int" name="NWRITE">     2</i>
   <i type="logical" name="LWAVE"> F  </i>
   <i type="logical" name="LDOWNSAMPLE"> F  </i>
   <i type="logical" name="LCHARG"> F  </i>
   <i type="logical" name="LPARD"> F  </i>
   <i type="logical" name="LVTOT"> F  </i>
   <i type="logical" name="LVHAR"> F  </i>
   <i type="logical" name="LELF"> F  </i>
   <i type="logical" name="LOPTICS"> F  </i>
   <v name="STM">      0.00000000      0.00000000      0.00000000      0.00000000      0.00000000      0.00000000      0.00000000</v>
  </separator>
  <separator name="performance" >
   <i type="int" name="NPAR">     6</i>
   <i type="int" name="NSIM">     4</i>
   <i type="int" name="NBLK">    -1</i>
   <i type="logical" name="LPLANE"> T  </i>
   <i type="logical" name="LSCALAPACK"> T  </i>
   <i type="logical" name="LSCAAWARE"> F  </i>
   <i type="logical" name="LSCALU"> F  </i>
   <i type="logical" name="LASYNC"> F  </i>
   <i type="logical" name="LORBITALREAL"> F  </i>
  </separator>
  <separator name="miscellaneous" >
   <i type="int" name="IDIOT">     3</i>
   <i type="int" name="ISPECIAL">     0</i>
   <i type="logical" name="LMUSIC"> F  </i>
   <v name="POMASS">     12.01100000     16.00000000</v>
   <v name="DARWINR">      0.00000000      0.00000000</v>
   <v name="DARWINV">      1.00000000      1.00000000</v>
   <i type="logical" name="LCORR"> T  </i>
  </separator>
  <i type="logical" name="GGA_COMPAT"> T  </i>
  <i type="logical" name="LBERRY"> F  </i>
  <i type="int" name="ICORELEVEL">     0</i>
  <i type="logical" name="LDAU"> F  </i>
  <i type="int" name="I_CONSTRAINED_M">     0</i>
  <separator name="electronic exchange-correlation" >
   <i type="string" name="GGA">--</i>
   <i type="int" name="VOSKOWN">     0</i>
   <i type="logical" name="LHFCALC"> F  </i>
   <i type="string" name="PRECFOCK"></i>
   <i type="logical" name="LSYMGRAD"> F  </i>
   <i type="logical" name="LHFONE"> F  </i>
   <i type="logical" name="LRHFCALC"> F  </i>
   <i type="logical" name="LTHOMAS"> F  </i>
   <i type="logical" name="LMODELHF"> F  </i>
   <i name="ENCUT4O">     -1.00000000</i>
   <i type="int" name="EXXOEP">     0</i>
   <i type="int" name="FOURORBIT">     0</i>
   <i name="AEXX">      0.00000000</i>
   <i name="HFALPHA">      0.00000000</i>
   <i name="MCALPHA">      0.00000000</i>
   <i name="ALDAX">      1.00000000</i>
   <i name="AGGAX">      1.00000000</i>
   <i name="ALDAC">      1.00000000</i>
   <i name="AGGAC">      1.00000000</i>
   <i type="int" name="NKREDX">     1</i>
   <i type="int" name="NKREDY">     1</i>
   <i type="int" name="NKREDZ">     1</i>
   <i type="logical" name="SHIFTRED"> F  </i>
   <i type="logical" name="ODDONLY"> F  </i>
   <i type="logical" name="EVENONLY"> F  </i>
   <i type="int" name="LMAXFOCK">     0</i>
   <i type="int" name="NMAXFOCKAE">     0</i>
   <i type="logical" name="LFOCKAEDFT"> F  </i>
   <i name="HFSCREEN">      0.00000000</i>
   <i name="HFSCREENC">      0.00000000</i>
   <i type="int" name="NBANDSGWLOW">     0</i>
  </separator>
  <separator name="vdW DFT" >
   <i type="logical" name="LUSE_VDW"> F  </i>
   <i name="Zab_VDW">     -0.84910000</i>
   <i name="PARAM1">      0.12340000</i>
   <i name="PARAM2">      1.00000000</i>
   <i name="PARAM3">      0.00000000</i>
  </separator>
  <separator name="model GW" >
   <i type="int" name="MODEL_GW">     0</i>
   <i name="MODEL_EPS0">     30.82846644</i>
   <i name="MODEL_ALPHA">      1.00000000</i>
  </separator>
  <separator name="linear response parameters" >
   <i type="logical" name="LEPSILON"> F  </i>
   <i type="logical" name="LRPA"> F  </i>
   <i type="logical" name="LNABLA"> F  </i>
   <i type="logical" name="LVEL"> F  </i>
   <i type="int" name="KINTER">     0</i>
   <i name="CSHIFT">      0.10000000</i>
   <i name="OMEGAMAX">     -1.00000000</i>
   <i name="DEG_THRESHOLD">      0.00200000</i>
   <i name="RTIME">     -0.10000000</i>
   <i name="WPLASMAI">      0.00000000</i>
   <v name="DFIELD">      0.00000000      0.00000000      0.00000000</v>
   <v name="WPLASMA">      0.00000000      0.00000000      0.00000000      0.00000000      0.00000000      0.00000000      0.00000000      0.00000000      0.00000000</v>
  </separator>
  <separator name="orbital magnetization" >
   <i type="logical" name="NUCIND"> F  </i>
   <v name="MAGPOS">      0.00000000      0.00000000      0.00000000</v>
   <i type="logical" name="LNICSALL"> T  </i>
   <i type="logical" name="ORBITALMAG"> F  </i>
   <i type="logical" name="LMAGBLOCH"> F  </i>
   <i type="logical" name="LCHIMAG"> F  </i>
   <i type="logical" name="LGAUGE"> T  </i>
   <i type="int" name="MAGATOM">     0</i>
   <v name="MAGDIPOL">      0.00000000      0.00000000      0.00000000</v>
   <v name="AVECCONST">      0.00000000      0.00000000      0.00000000</v>
  </separator>
  <separator name="response functions" >
   <i type="logical" name="LADDER"> F  </i>
   <i type="logical" name="LRPAFORCE"> F  </i>
   <i type="logical" name="LFXC"> F  </i>
   <i type="logical" name="LHARTREE"> T  </i>
   <i type="int" name="IBSE">     0</i>
   <v type="int" name="KPOINT">    -1     0     0     0</v>
   <i type="logical" name="LTCTE"> F  </i>
   <i type="logical" name="LTETE"> F  </i>
   <i type="logical" name="LTRIPLET"> F  </i>
   <i type="logical" name="LFXCEPS"> F  </i>
   <i type="logical" name="LFXHEG"> F  </i>
   <i type="int" name="NATURALO">     2</i>
   <i type="logical" name="L2ORDER"> F  </i>
   <i type="logical" name="LMP2LT"> F  </i>
   <i type="logical" name="LUSEW"> F  </i>
   <i name="ENCUTGW">     -2.00000000</i>
   <i name="ENCUTGWSOFT">     -2.00000000</i>
   <i name="ENCUTLF">     -1.00000000</i>
   <i type="int" name="LMAXMP2">    -1</i>
   <i name="SCISSOR">      0.00000000</i>
   <i type="int" name="NOMEGA">     0</i>
   <i type="int" name="NOMEGAR">     0</i>
   <i type="int" name="NBANDSGW">    -1</i>
   <i type="int" name="NBANDSO">    -1</i>
   <i type="int" name="NBANDSV">    -1</i>
   <i type="int" name="NELM">   300</i>
   <i type="int" name="NELMHF">     1</i>
   <i type="int" name="DIM">     3</i>
   <i type="int" name="ANTIRES">     0</i>
   <i name="OMEGAMAX">    -30.00000000</i>
   <i name="OMEGAMIN">    -30.00000000</i>
   <i name="OMEGATL">   -200.00000000</i>
   <i type="int" name="OMEGAGRID">   140</i>
   <i name="CSHIFT">     -0.10000000</i>
   <i type="logical" name="SELFENERGY"> F  </i>
   <i type="logical" name="LSPECTRAL"> F  </i>
   <i type="logical" name="LSPECTRALGW"> F  </i>
   <i type="logical" name="LSINGLES"> F  </i>
   <i type="logical" name="LFERMIGW"> F  </i>
   <i type="logical" name="ODDONLYGW"> F  </i>
   <i type="logical" name="EVENONLYGW"> F  </i>
   <i type="int" name="NKREDLFX">     1</i>
   <i type="int" name="NKREDLFY">     1</i>
   <i type="int" name="NKREDLFZ">     1</i>
   <i type="int" name="MAXMEM">  2800</i>
   <i type="int" name="TELESCOPE">     0</i>
   <i type="int" name="TAUPAR">     1</i>
   <i type="int" name="OMEGAPAR">    -1</i>
   <i name="LAMBDA">      1.00000000</i>
  </separator>
  <separator name="External order field" >
   <i name="OFIELD_KAPPA">      0.00000000</i>
   <v name="OFIELD_K">      0.00000000      0.00000000      0.00000000</v>
   <i name="OFIELD_Q6_NEAR">      0.00000000</i>
   <i name="OFIELD_Q6_FAR">      0.00000000</i>
   <i name="OFIELD_A">      0.00000000</i>
  </separator>
 </parameters>
 <atominfo>
  <atoms>      51 </atoms>
  <types>       2 </types>
  <array name="atoms" >
   <dimension dim="1">ion</dimension>
   <field type="string">element</field>
   <field type="int">atomtype</field>
   <set>
    <rc><c>C </c><c>   1</c></rc>
    <rc><c>C </c><c>   1</c></rc>
    <rc><c>C </c><c>   1</c></rc>
    <rc><c>C </c><c>   1</c></rc>
    <rc><c>C </c><c>   1</c></rc>
    <rc><c>C </c><c>   1</c></rc>
    <rc><c>C </c><c>   1</c></rc>
    <rc><c>C </c><c>   1</c></rc>
    <rc><c>C </c><c>   1</c></rc>
    <rc><c>C </c><c>   1</c></rc>
    <rc><c>C </c><c>   1</c></rc>
    <rc><c>C </c><c>   1</c></rc>
    <rc><c>C </c><c>   1</c></rc>
    <rc><c>C </c><c>   1</c></rc>
    <rc><c>C </c><c>   1</c></rc>
    <rc><c>C </c><c>   1</c></rc>
    <rc><c>C </c><c>   1</c></rc>
    <rc><c>C </c><c>   1</c></rc>
    <rc><c>C </c><c>   1</c></rc>
    <rc><c>C </c><c>   1</c></rc>
    <rc><c>C </c><c>   1</c></rc>
    <rc><c>C </c><c>   1</c></rc>
    <rc><c>C </c><c>   1</c></rc>
    <rc><c>C </c><c>   1</c></rc>
    <rc><c>C </c><c>   1</c></rc>
    <rc><c>C </c><c>   1</c></rc>
    <rc><c>C </c><c>   1</c></rc>
    <rc><c>C </c><c>   1</c></rc>
    <rc><c>C </c><c>   1</c></rc>
    <rc><c>C </c><c>   1</c></rc>
    <rc><c>C </c><c>   1</c></rc>
    <rc><c>C </c><c>   1</c></rc>
    <rc><c>C </c><c>   1</c></rc>
    <rc><c>C </c><c>   1</c></rc>
    <rc><c>C </c><c>   1</c></rc>
    <rc><c>C </c><c>   1</c></rc>
    <rc><c>C </c><c>   1</c></rc>
    <rc><c>C </c><c>   1</c></rc>
    <rc><c>C </c><c>   1</c></rc>
    <rc><c>C </c><c>   1</c></rc>
    <rc><c>C </c><c>   1</c></rc>
    <rc><c>C </c><c>   1</c></rc>
    <rc><c>C </c><c>   1</c></rc>
    <rc><c>C </c><c>   1</c></rc>
    <rc><c>C </c><c>   1</c></rc>
    <rc><c>C </c><c>   1</c></rc>
    <rc><c>C </c><c>   1</c></rc>
    <rc><c>C </c><c>   1</c></rc>
    <rc><c>C </c><c>   1</c></rc>
    <rc><c>C </c><c>   1</c></rc>
    <rc><c>O </c><c>   2</c></rc>
   </set>
  </array>
  <array name="atomtypes" >
   <dimension dim="1">type</dimension>
   <field type="int">atomspertype</field>
   <field type="string">element</field>
   <field>mass</field>
   <field>valence</field>
   <field type="string">pseudopotential</field>
   <set>
    <rc><c>  50</c><c>C </c><c>     12.01100000</c><c>      4.00000000</c><c>  PAW_PBE C 08Apr2002                   </c></rc>
    <rc><c>   1</c><c>O </c><c>     16.00000000</c><c>      6.00000000</c><c>  PAW_PBE O 08Apr2002                   </c></rc>
   </set>
  </array>
 </atominfo>
 <structure name="initialpos" >
  <crystal>
   <varray name="basis" >
    <v>      12.30000019       0.00000000       0.00000000 </v>
    <v>       6.15000080      10.65211222       0.00000000 </v>
    <v>       0.00000000       0.00000000      20.00000000 </v>
   </varray>
   <i name="volume">   2620.41964732 </i>
   <varray name="rec_basis" >
    <v>       0.08130081      -0.04693905       0.00000000 </v>
    <v>       0.00000000       0.09387809       0.00000000 </v>
    <v>       0.00000000       0.00000000       0.05000000 </v>
   </varray>
  </crystal>
  <varray name="positions" >
   <v>       0.00000000       0.00000000       0.41799748 </v>
   <v>       0.20000000       0.00000000       0.41799748 </v>
   <v>       0.40000000       0.00000000       0.41799748 </v>
   <v>       0.60000000       0.00000000       0.41799748 </v>
   <v>       0.80000000       0.00000000       0.41799748 </v>
   <v>       0.00000000       0.20000000       0.41799748 </v>
   <v>       0.20000000       0.20000000       0.41799748 </v>
   <v>       0.40000000       0.20000000       0.41799748 </v>
   <v>       0.60000000       0.20000000       0.41799748 </v>
   <v>       0.80000000       0.20000000       0.41799748 </v>
   <v>       0.00000000       0.40000000       0.41799748 </v>
   <v>       0.20000000       0.40000000       0.41799748 </v>
   <v>       0.40000000       0.40000000       0.41799748 </v>
   <v>       0.60000000       0.40000000       0.41799748 </v>
   <v>       0.80000000       0.40000000       0.41799748 </v>
   <v>       0.00000000       0.60000000       0.41799748 </v>
   <v>       0.20000000       0.60000000       0.41799748 </v>
   <v>       0.40000000       0.60000000       0.41799748 </v>
   <v>       0.60000000       0.60000000       0.41799748 </v>
   <v>       0.80000000       0.60000000       0.41749748 </v>
   <v>       0.00000000       0.80000000       0.41799748 </v>
   <v>       0.20000000       0.80000000       0.41799748 </v>
   <v>       0.40000000       0.80000000       0.41799748 </v>
   <v>       0.60000000       0.80000000       0.41799748 </v>
   <v>       0.80000000       0.80000000       0.41799748 </v>
   <v>       0.06666667       0.06666660       0.41800609 </v>
   <v>       0.26666667       0.06666660       0.41800609 </v>
   <v>       0.46666667       0.06666660       0.41800609 </v>
   <v>       0.66666667       0.06666660       0.41800609 </v>
   <v>       0.86666667       0.06666660       0.41800609 </v>
   <v>       0.06666667       0.26666660       0.41800609 </v>
   <v>       0.26666667       0.26666660       0.41800609 </v>
   <v>       0.46666667       0.26666660       0.41800609 </v>
   <v>       0.66666667       0.26666660       0.41800609 </v>
   <v>       0.86666667       0.26666660       0.41800609 </v>
   <v>       0.06666667       0.46666660       0.41800609 </v>
   <v>       0.26666667       0.46666660       0.41800609 </v>
   <v>       0.46666667       0.46666660       0.41800609 </v>
   <v>       0.66666667       0.46666660       0.41800609 </v>
   <v>       0.86666667       0.46666660       0.41800609 </v>
   <v>       0.06666667       0.66666660       0.41800609 </v>
   <v>       0.26666667       0.66666660       0.41800609 </v>
   <v>       0.46666667       0.66666660       0.41800609 </v>
   <v>       0.66666667       0.66666660       0.41800609 </v>
   <v>       0.86666667       0.66666660       0.41800609 </v>
   <v>       0.06666667       0.86666660       0.41800609 </v>
   <v>       0.26666667       0.86666660       0.41800609 </v>
   <v>       0.46666667       0.86666660       0.41800609 </v>
   <v>       0.66666667       0.86666660       0.41800609 </v>
   <v>       0.86666667       0.86666660       0.41800609 </v>
   <v>       0.40000000       0.40000000       0.46800609 </v>
  </varray>
  <varray name="velocities" >
   <v>       0.00000000       0.00000000       0.00000000 </v>
   <v>       0.00000000       0.00000000       0.00000000 </v>
   <v>       0.00000000       0.00000000       0.00000000 </v>
   <v>       0.00000000       0.00000000       0.00000000 </v>
   <v>       0.00000000       0.00000000       0.00000000 </v>
   <v>       0.00000000       0.00000000       0.00000000 </v>
   <v>       0.00000000       0.00000000       0.00000000 </v>
   <v>       0.00000000       0.00000000       0.00000000 </v>
   <v>       0.00000000       0.00000000       0.00000000 </v>
   <v>       0.00000000       0.00000000       0.00000000 </v>
   <v>       0.00000000       0.00000000       0.00000000 </v>
   <v>       0.00000000       0.00000000       0.00000000 </v>
   <v>       0.00000000       0.00000000       0.00000000 </v>
   <v>       0.00000000       0.00000000       0.00000000 </v>
   <v>       0.00000000       0.00000000       0.00000000 </v>
   <v>       0.00000000       0.00000000       0.00000000 </v>
   <v>       0.00000000       0.00000000       0.00000000 </v>
   <v>       0.00000000       0.00000000       0.00000000 </v>
   <v>       0.00000000       0.00000000       0.00000000 </v>
   <v>       0.00000000       0.00000000       0.00000000 </v>
   <v>       0.00000000       0.00000000       0.00000000 </v>
   <v>       0.00000000       0.00000000       0.00000000 </v>
   <v>       0.00000000       0.00000000       0.00000000 </v>
   <v>       0.00000000       0.00000000       0.00000000 </v>
   <v>       0.00000000       0.00000000       0.00000000 </v>
   <v>       0.00000000       0.00000000       0.00000000 </v>
   <v>       0.00000000       0.00000000       0.00000000 </v>
   <v>       0.00000000       0.00000000       0.00000000 </v>
   <v>       0.00000000       0.00000000       0.00000000 </v>
   <v>       0.00000000       0.00000000       0.00000000 </v>
   <v>       0.00000000       0.00000000       0.00000000 </v>
   <v>       0.00000000       0.00000000       0.00000000 </v>
   <v>       0.00000000       0.00000000       0.00000000 </v>
   <v>       0.00000000       0.00000000       0.00000000 </v>
   <v>       0.00000000       0.00000000       0.00000000 </v>
   <v>       0.00000000       0.00000000       0.00000000 </v>
   <v>       0.00000000       0.00000000       0.00000000 </v>
   <v>       0.00000000       0.00000000       0.00000000 </v>
   <v>       0.00000000       0.00000000       0.00000000 </v>
   <v>       0.00000000       0.00000000       0.00000000 </v>
   <v>       0.00000000       0.00000000       0.00000000 </v>
   <v>       0.00000000       0.00000000       0.00000000 </v>
   <v>       0.00000000       0.00000000       0.00000000 </v>
   <v>       0.00000000       0.00000000       0.00000000 </v>
   <v>       0.00000000       0.00000000       0.00000000 </v>
   <v>       0.00000000       0.00000000       0.00000000 </v>
   <v>       0.00000000       0.00000000       0.00000000 </v>
   <v>       0.00000000       0.00000000       0.00000000 </v>
   <v>       0.00000000       0.00000000       0.00000000 </v>
   <v>       0.00000000       0.00000000       0.00000000 </v>
   <v>       0.00000000       0.00000000       0.00000000 </v>
  </varray>
 </structure>
 <calculation>
  <scstep>
   <time name="dav">    3.28    3.28</time>
   <time name="total">    3.80    3.81</time>
   <energy>
    <i name="alphaZ">     82.54348252 </i>
    <i name="ewald">  34516.48630816 </i>
    <i name="hartreedc"> -41034.80112014 </i>
    <i name="XCdc">    721.37964069 </i>
    <i name="pawpsdc">  22781.19595426 </i>
    <i name="pawaedc"> -22817.52509957 </i>
    <i name="eentropy">     -0.00014853 </i>
    <i name="bandstr">  -2492.03691125 </i>
    <i name="atom">   7788.62438962 </i>
    <i name="e_fr_energy">   -454.13350423 </i>
    <i name="e_wo_entrp">   -454.13335570 </i>
    <i name="e_0_energy">   -454.13342996 </i>
   </energy>
  </scstep>
  <scstep>
   <time name="diag">    0.63    0.63</time>
   <time name="diis">    3.01    3.01</time>
   <time name="orth">    0.03    0.03</time>
   <time name="total">    4.19    4.20</time>
   <energy>
    <i name="e_fr_energy">   -454.32753940 </i>
    <i name="e_wo_entrp">   -454.32743131 </i>
    <i name="e_0_energy">   -454.32748536 </i>
   </energy>
  </scstep>
  <scstep>
   <time name="diag">    0.62    0.62</time>
   <time name="diis">    3.34    3.35</time>
   <time name="orth">    0.03    0.03</time>
   <time name="total">    4.51    4.51</time>
   <energy>
    <i name="e_fr_energy">   -454.33892804 </i>
    <i name="e_wo_entrp">   -454.33881045 </i>
    <i name="e_0_energy">   -454.33886924 </i>
   </energy>
  </scstep>
  <scstep>
   <time name="diag">    0.63    0.63</time>
   <time name="diis">    2.71    2.72</time>
   <time name="orth">    0.03    0.03</time>
   <time name="total">    3.88    3.88</time>
   <energy>
    <i name="e_fr_energy">   -454.33963114 </i>
    <i name="e_wo_entrp">   -454.33951971 </i>
    <i name="e_0_energy">   -454.33957542 </i>
   </energy>
  </scstep>
  <scstep>
   <time name="diag">    0.63    0.63</time>
   <time name="diis">    2.99    2.99</time>
   <time name="orth">    0.03    0.03</time>
   <time name="total">    4.15    4.15</time>
   <energy>
    <i name="e_fr_energy">   -454.33968369 </i>
    <i name="e_wo_entrp">   -454.33956850 </i>
    <i name="e_0_energy">   -454.33962610 </i>
   </energy>
  </scstep>
  <scstep>
   <time name="diag">    0.62    0.62</time>
   <time name="diis">    2.32    2.33</time>
   <time name="orth">    0.03    0.03</time>
   <time name="total">    3.16    3.16</time>
   <energy>
    <i name="alphaZ">     82.54348252 </i>
    <i name="ewald">  34516.48630816 </i>
    <i name="hartreedc"> -41034.81959384 </i>
    <i name="XCdc">    721.38117896 </i>
    <i name="pawpsdc">  22780.08687859 </i>
    <i name="pawaedc"> -22816.41687155 </i>
    <i name="eentropy">     -0.00011450 </i>
    <i name="bandstr">  -2492.22534701 </i>
    <i name="atom">   7788.62438962 </i>
    <i name="e_fr_energy">   -454.33968904 </i>
    <i name="e_wo_entrp">   -454.33957454 </i>
    <i name="e_0_energy">   -454.33963179 </i>
   </energy>
  </scstep>
  <structure>
   <crystal>
    <varray name="basis" >
     <v>      12.30000019       0.00000000       0.00000000 </v>
     <v>       6.15000080      10.65211222       0.00000000 </v>
     <v>       0.00000000       0.00000000      20.00000000 </v>
    </varray>
    <i name="volume">   2620.41964732 </i>
    <varray name="rec_basis" >
     <v>       0.08130081      -0.04693905       0.00000000 </v>
     <v>       0.00000000       0.09387809       0.00000000 </v>
     <v>       0.00000000       0.00000000       0.05000000 </v>
    </varray>
   </crystal>
   <varray name="positions" >
    <v>       0.00000000       0.00000000       0.41799748 </v>
    <v>       0.20000000       0.00000000       0.41799748 </v>
    <v>       0.40000000       0.00000000       0.41799748 </v>
    <v>       0.60000000       0.00000000       0.41799748 </v>
    <v>       0.80000000       0.00000000       0.41799748 </v>
    <v>       0.00000000       0.20000000       0.41799748 </v>
    <v>       0.20000000       0.20000000       0.41799748 </v>
    <v>       0.40000000       0.20000000       0.41799748 </v>
    <v>       0.60000000       0.20000000       0.41799748 </v>
    <v>       0.80000000       0.20000000       0.41799748 </v>
    <v>       0.00000000       0.40000000       0.41799748 </v>
    <v>       0.20000000       0.40000000       0.41799748 </v>
    <v>       0.40000000       0.40000000       0.41799748 </v>
    <v>       0.60000000       0.40000000       0.41799748 </v>
    <v>       0.80000000       0.40000000       0.41799748 </v>
    <v>       0.00000000       0.60000000       0.41799748 </v>
    <v>       0.20000000       0.60000000       0.41799748 </v>
    <v>       0.40000000       0.60000000       0.41799748 </v>
    <v>       0.60000000       0.60000000       0.41799748 </v>
    <v>       0.80000000       0.60000000       0.41749748 </v>
    <v>       0.00000000       0.80000000       0.41799748 </v>
    <v>       0.20000000       0.80000000       0.41799748 </v>
    <v>       0.40000000       0.80000000       0.41799748 </v>
    <v>       0.60000000       0.80000000       0.41799748 </v>
    <v>       0.80000000       0.80000000       0.41799748 </v>
    <v>       0.06666667       0.06666660       0.41800609 </v>
    <v>       0.26666667       0.06666660       0.41800609 </v>
    <v>       0.46666667       0.06666660       0.41800609 </v>
    <v>       0.66666667       0.06666660       0.41800609 </v>
    <v>       0.86666667       0.06666660       0.41800609 </v>
    <v>       0.06666667       0.26666660       0.41800609 </v>
    <v>       0.26666667       0.26666660       0.41800609 </v>
    <v>       0.46666667       0.26666660       0.41800609 </v>
    <v>       0.66666667       0.26666660       0.41800609 </v>
    <v>       0.86666667       0.26666660       0.41800609 </v>
    <v>       0.06666667       0.46666660       0.41800609 </v>
    <v>       0.26666667       0.46666660       0.41800609 </v>
    <v>       0.46666667       0.46666660       0.41800609 </v>
    <v>       0.66666667       0.46666660       0.41800609 </v>
    <v>       0.86666667       0.46666660       0.41800609 </v>
    <v>       0.06666667       0.66666660       0.41800609 </v>
    <v>       0.26666667       0.66666660       0.41800609 </v>
    <v>       0.46666667       0.66666660       0.41800609 </v>
    <v>       0.66666667       0.66666660       0.41800609 </v>
    <v>       0.86666667       0.66666660       0.41800609 </v>
    <v>       0.06666667       0.86666660       0.41800609 </v>
    <v>       0.26666667       0.86666660       0.41800609 </v>
    <v>       0.46666667       0.86666660       0.41800609 </v>
    <v>       0.66666667       0.86666660       0.41800609 </v>
    <v>       0.86666667       0.86666660       0.41800609 </v>
    <v>       0.40000000       0.40000000       0.46800609 </v>
   </varray>
  </structure>
  <varray name="forces" >
   <v>      -0.04756659      -0.02768337       0.00957853 </v>
   <v>       0.04756659      -0.02768337       0.00957853 </v>
   <v>      -0.15919530       0.01438471      -0.02597759 </v>
   <v>      -0.00000001      -0.20764113      -0.02782931 </v>
   <v>       0.15919530       0.01438471      -0.02597759 </v>
   <v>       0.00000000       0.05491317       0.00850764 </v>
   <v>       0.42883874       0.24752247       0.00013649 </v>
   <v>       0.09468809      -0.20507007       0.16507038 </v>
   <v>      -0.09468812      -0.20507007       0.16507038 </v>
   <v>      -0.42883870       0.24752247       0.00013649 </v>
   <v>      -0.06715241      -0.14507513      -0.02049910 </v>
   <v>      -0.13022857       0.18447517       0.16411632 </v>
   <v>       0.00000000       0.00025903     -48.15836662 </v>
   <v>       0.13022859       0.18447517       0.16411632 </v>
   <v>       0.06715239      -0.14507513      -0.02049910 </v>
   <v>      -0.17979498       0.10399281      -0.02154513 </v>
   <v>      -0.22485598       0.02061553       0.16500221 </v>
   <v>       0.22485598       0.02061553       0.16500221 </v>
   <v>       0.17979499       0.10399281      -0.02154513 </v>
   <v>      -0.00000000      -0.01315928       0.15560968 </v>
   <v>       0.09206126       0.13063760      -0.02680965 </v>
   <v>      -0.00000003      -0.49513078       0.00011717 </v>
   <v>      -0.09206124       0.13063760      -0.02680965 </v>
   <v>      -0.01138295       0.00634858       0.02316096 </v>
   <v>       0.01138295       0.00634858       0.02316096 </v>
   <v>       0.00000000       0.00013820      -0.00652568 </v>
   <v>       0.09722761      -0.21714824       0.00958032 </v>
   <v>       0.19421484       0.25059387       0.25710770 </v>
   <v>      -0.19421481       0.25059387       0.25710770 </v>
   <v>      -0.09722764      -0.21714824       0.00958032 </v>
   <v>      -0.13961682       0.19272588       0.01497162 </v>
   <v>      -0.44162286      -0.25487277      -0.35527604 </v>
   <v>      -0.00000034      -5.07608532      -4.34897358 </v>
   <v>       0.44162283      -0.25487277      -0.35527604 </v>
   <v>       0.13961685       0.19272588       0.01497162 </v>
   <v>       0.31396561       0.04303986       0.25352611 </v>
   <v>      -4.39568059       2.53802997      -4.34894224 </v>
   <v>       4.39568093       2.53802997      -4.34894224 </v>
   <v>      -0.31396560       0.04303986       0.25352611 </v>
   <v>       0.00000001       0.08266922      -0.08313963 </v>
   <v>       0.11996014      -0.29351816       0.26200806 </v>
   <v>       0.00000003       0.50980694      -0.35613566 </v>
   <v>      -0.11996018      -0.29351816       0.26200806 </v>
   <v>      -0.08194302      -0.04759031      -0.08687979 </v>
   <v>       0.08194301      -0.04759031      -0.08687979 </v>
   <v>      -0.23670851       0.02453132       0.00967470 </v>
   <v>       0.23670852       0.02453132       0.00967470 </v>
   <v>       0.07115776      -0.04119799      -0.01725394 </v>
   <v>       0.00000001       0.09482982      -0.03004305 </v>
   <v>      -0.07115777      -0.04119799      -0.01725394 </v>
   <v>      -0.00000000      -0.00008333      59.98527921 </v>
  </varray>
  <varray name="stress" >
   <v>       9.51315489       0.00000063       0.00000000 </v>
   <v>       0.00000063       9.50973316       0.00021856 </v>
   <v>       0.00000000       0.00021855      31.94607438 </v>
  </varray>
  <energy>
   <i name="e_fr_energy">   -454.33968904 </i>
   <i name="e_wo_entrp">   -454.33963179 </i>
   <i name="e_0_energy">     -0.00011450 </i>
  </energy>
  <time name="totalsc">   29.11   29.14</time>
  <eigenvalues>
   <array>
    <dimension dim="1">band</dimension>
    <dimension dim="2">kpoint</dimension>
    <dimension dim="3">spin</dimension>
    <field>eigene</field>
    <field>occ</field>
    <set>
     <set comment="spin 1">
      <set comment="kpoint 1">
       <r>  -31.7401    1.0000 </r>
       <r>  -22.2710    1.0000 </r>
       <r>  -21.5030    1.0000 </r>
       <r>  -21.5030    1.0000 </r>
       <r>  -21.3944    1.0000 </r>
       <r>  -21.3944    1.0000 </r>
       <r>  -21.3939    1.0000 </r>
       <r>  -20.8742    1.0000 </r>
       <r>  -19.8766    1.0000 </r>
       <r>  -19.8766    1.0000 </r>
       <r>  -19.5492    1.0000 </r>
       <r>  -19.5492    1.0000 </r>
       <r>  -19.5389    1.0000 </r>
       <r>  -19.1913    1.0000 </r>
       <r>  -18.9010    1.0000 </r>
       <r>  -18.9010    1.0000 </r>
       <r>  -18.6436    1.0000 </r>
       <r>  -18.6430    1.0000 </r>
       <r>  -18.6430    1.0000 </r>
       <r>  -17.8842    1.0000 </r>
       <r>  -17.0214    1.0000 </r>
       <r>  -17.0214    1.0000 </r>
       <r>  -16.4778    1.0000 </r>
       <r>  -16.4582    1.0000 </r>
       <r>  -16.4581    1.0000 </r>
       <r>  -16.0495    1.0000 </r>
       <r>  -15.9967    1.0000 </r>
       <r>  -15.9966    1.0000 </r>
       <r>  -15.4975    1.0000 </r>
       <r>  -15.4974    1.0000 </r>
       <r>  -15.4929    1.0000 </r>
       <r>  -15.0896    1.0000 </r>
       <r>  -14.6293    1.0000 </r>
       <r>  -14.6293    1.0000 </r>
       <r>  -14.1498    1.0000 </r>
       <r>  -14.1497    1.0000 </r>
       <r>  -14.1431    1.0000 </r>
       <r>  -13.9646    1.0000 </r>
       <r>  -12.9911    1.0000 </r>
       <r>  -12.9911    1.0000 </r>
       <r>  -12.0313    1.0000 </r>
       <r>  -11.7649    1.0000 </r>
       <r>  -11.7648    1.0000 </r>
       <r>  -11.7617    1.0000 </r>
       <r>  -11.6903    1.0000 </r>
       <r>  -11.6903    1.0000 </r>
       <r>  -11.6516    1.0000 </r>
       <r>  -11.6497    1.0000 </r>
       <r>  -11.6497    1.0000 </r>
       <r>  -11.6487    1.0000 </r>
       <r>  -10.8020    1.0000 </r>
       <r>  -10.8020    1.0000 </r>
       <r>  -10.4286    1.0000 </r>
       <r>  -10.3344    1.0000 </r>
       <r>  -10.2888    1.0000 </r>
       <r>  -10.2888    1.0000 </r>
       <r>  -10.2705    1.0000 </r>
       <r>  -10.0776    1.0000 </r>
       <r>   -9.6855    1.0000 </r>
       <r>   -9.6844    1.0000 </r>
       <r>   -9.3255    1.0000 </r>
       <r>   -9.3254    1.0000 </r>
       <r>   -9.3002    1.0000 </r>
       <r>   -9.2812    1.0000 </r>
       <r>   -9.2794    1.0000 </r>
       <r>   -9.0460    1.0000 </r>
       <r>   -9.0047    1.0000 </r>
       <r>   -9.0046    1.0000 </r>
       <r>   -8.9486    1.0000 </r>
       <r>   -8.9405    1.0000 </r>
       <r>   -8.9405    1.0000 </r>
       <r>   -8.9398    1.0000 </r>
       <r>   -8.9190    1.0000 </r>
       <r>   -8.9189    1.0000 </r>
       <r>   -8.8941    1.0000 </r>
       <r>   -8.4361    1.0000 </r>
       <r>   -7.8023    1.0000 </r>
       <r>   -7.8008    1.0000 </r>
       <r>   -7.3239    1.0000 </r>
       <r>   -7.3226    1.0000 </r>
       <r>   -7.3100    1.0000 </r>
       <r>   -7.3023    1.0000 </r>
       <r>   -7.2991    1.0000 </r>
       <r>   -7.2990    1.0000 </r>
       <r>   -7.1609    1.0000 </r>
       <r>   -7.1608    1.0000 </r>
       <r>   -7.1549    1.0000 </r>
       <r>   -6.7514    1.0000 </r>
       <r>   -6.5088    1.0000 </r>
       <r>   -6.5075    1.0000 </r>
       <r>   -6.2669    1.0000 </r>
       <r>   -6.2464    1.0000 </r>
       <r>   -6.2463    1.0000 </r>
       <r>   -5.9237    1.0000 </r>
       <r>   -5.9217    1.0000 </r>
       <r>   -5.1956    1.0000 </r>
       <r>   -4.7638    1.0000 </r>
       <r>   -4.7631    1.0000 </r>
       <r>   -4.2705    1.0000 </r>
       <r>   -4.2663    1.0000 </r>
       <r>   -4.2663    1.0000 </r>
       <r>   -3.2146    1.0000 </r>
       <r>   -3.2146    1.0000 </r>
       <r>   -2.9162    0.0021 </r>
       <r>   -1.4613    0.0000 </r>
       <r>   -1.4570    0.0000 </r>
       <r>   -1.4570    0.0000 </r>
       <r>   -0.9913    0.0000 </r>
       <r>   -0.9912    0.0000 </r>
       <r>   -0.5428    0.0000 </r>
       <r>    0.4171    0.0000 </r>
       <r>    0.4215    0.0000 </r>
       <r>    0.4218    0.0000 </r>
       <r>    0.5646    0.0000 </r>
       <r>    0.8436    0.0000 </r>
       <r>    0.8436    0.0000 </r>
       <r>    1.2932    0.0000 </r>
       <r>    1.3440    0.0000 </r>
       <r>    1.6736    0.0000 </r>
       <r>    1.8044    0.0000 </r>
       <r>    1.8046    0.0000 </r>
       <r>    1.8057    0.0000 </r>
       <r>    1.8279    0.0000 </r>
       <r>    1.8290    0.0000 </r>
       <r>    2.0346    0.0000 </r>
       <r>    2.1767    0.0000 </r>
       <r>    2.1795    0.0000 </r>
       <r>    2.1795    0.0000 </r>
       <r>    2.3472    0.0000 </r>
       <r>    2.3479    0.0000 </r>
       <r>    2.6130    0.0000 </r>
       <r>    2.6485    0.0000 </r>
      </set>
      <set comment="kpoint 2">
       <r>  -31.7402    1.0000 </r>
       <r>  -22.1890    1.0000 </r>
       <r>  -21.8693    1.0000 </r>
       <r>  -21.6613    1.0000 </r>
       <r>  -21.4545    1.0000 </r>
       <r>  -21.0347    1.0000 </r>
       <r>  -20.8972    1.0000 </r>
       <r>  -20.7274    1.0000 </r>
       <r>  -20.4201    1.0000 </r>
       <r>  -20.1622    1.0000 </r>
       <r>  -19.7869    1.0000 </r>
       <r>  -19.6991    1.0000 </r>
       <r>  -19.3263    1.0000 </r>
       <r>  -19.2429    1.0000 </r>
       <r>  -19.0617    1.0000 </r>
       <r>  -18.5928    1.0000 </r>
       <r>  -18.4579    1.0000 </r>
       <r>  -18.1213    1.0000 </r>
       <r>  -18.0630    1.0000 </r>
       <r>  -17.5909    1.0000 </r>
       <r>  -17.4978    1.0000 </r>
       <r>  -17.3008    1.0000 </r>
       <r>  -17.2766    1.0000 </r>
       <r>  -16.8514    1.0000 </r>
       <r>  -16.6584    1.0000 </r>
       <r>  -16.1762    1.0000 </r>
       <r>  -15.9779    1.0000 </r>
       <r>  -15.8476    1.0000 </r>
       <r>  -15.2983    1.0000 </r>
       <r>  -15.1698    1.0000 </r>
       <r>  -15.1342    1.0000 </r>
       <r>  -14.8848    1.0000 </r>
       <r>  -14.7818    1.0000 </r>
       <r>  -14.4781    1.0000 </r>
       <r>  -14.4560    1.0000 </r>
       <r>  -13.7672    1.0000 </r>
       <r>  -13.7600    1.0000 </r>
       <r>  -13.1961    1.0000 </r>
       <r>  -13.0894    1.0000 </r>
       <r>  -12.9342    1.0000 </r>
       <r>  -12.9045    1.0000 </r>
       <r>  -12.5852    1.0000 </r>
       <r>  -12.5500    1.0000 </r>
       <r>  -12.3900    1.0000 </r>
       <r>  -12.0221    1.0000 </r>
       <r>  -11.6634    1.0000 </r>
       <r>  -11.4474    1.0000 </r>
       <r>  -11.2962    1.0000 </r>
       <r>  -11.1218    1.0000 </r>
       <r>  -10.9143    1.0000 </r>
       <r>  -10.8501    1.0000 </r>
       <r>  -10.5843    1.0000 </r>
       <r>  -10.5327    1.0000 </r>
       <r>  -10.2853    1.0000 </r>
       <r>  -10.2369    1.0000 </r>
       <r>  -10.1613    1.0000 </r>
       <r>  -10.0491    1.0000 </r>
       <r>   -9.8539    1.0000 </r>
       <r>   -9.8203    1.0000 </r>
       <r>   -9.6536    1.0000 </r>
       <r>   -9.6069    1.0000 </r>
       <r>   -9.5605    1.0000 </r>
       <r>   -9.5275    1.0000 </r>
       <r>   -9.3707    1.0000 </r>
       <r>   -9.3403    1.0000 </r>
       <r>   -9.2595    1.0000 </r>
       <r>   -9.1757    1.0000 </r>
       <r>   -9.0996    1.0000 </r>
       <r>   -9.0825    1.0000 </r>
       <r>   -8.8658    1.0000 </r>
       <r>   -8.7122    1.0000 </r>
       <r>   -8.6643    1.0000 </r>
       <r>   -8.5040    1.0000 </r>
       <r>   -8.4028    1.0000 </r>
       <r>   -8.2879    1.0000 </r>
       <r>   -8.1337    1.0000 </r>
       <r>   -8.0946    1.0000 </r>
       <r>   -8.0650    1.0000 </r>
       <r>   -7.9714    1.0000 </r>
       <r>   -7.8084    1.0000 </r>
       <r>   -7.6195    1.0000 </r>
       <r>   -7.3604    1.0000 </r>
       <r>   -7.3357    1.0000 </r>
       <r>   -7.2662    1.0000 </r>
       <r>   -7.1978    1.0000 </r>
       <r>   -6.9202    1.0000 </r>
       <r>   -6.8727    1.0000 </r>
       <r>   -6.6933    1.0000 </r>
       <r>   -6.5908    1.0000 </r>
       <r>   -6.3489    1.0000 </r>
       <r>   -6.1846    1.0000 </r>
       <r>   -6.0741    1.0000 </r>
       <r>   -5.9221    1.0000 </r>
       <r>   -5.7388    1.0000 </r>
       <r>   -5.6404    1.0000 </r>
       <r>   -5.3222    1.0000 </r>
       <r>   -5.1149    1.0000 </r>
       <r>   -4.9700    1.0000 </r>
       <r>   -4.9226    1.0000 </r>
       <r>   -4.2698    1.0000 </r>
       <r>   -4.1688    1.0000 </r>
       <r>   -3.3365    1.0000 </r>
       <r>   -3.1368    0.9996 </r>
       <r>   -2.8039    0.0000 </r>
       <r>   -1.5913    0.0000 </r>
       <r>   -1.4236    0.0000 </r>
       <r>   -0.8399    0.0000 </r>
       <r>   -0.8191    0.0000 </r>
       <r>   -0.7061    0.0000 </r>
       <r>   -0.6679    0.0000 </r>
       <r>   -0.1286    0.0000 </r>
       <r>   -0.0062    0.0000 </r>
       <r>    0.2931    0.0000 </r>
       <r>    0.7063    0.0000 </r>
       <r>    0.7270    0.0000 </r>
       <r>    1.1023    0.0000 </r>
       <r>    1.1748    0.0000 </r>
       <r>    1.3643    0.0000 </r>
       <r>    1.4679    0.0000 </r>
       <r>    1.5396    0.0000 </r>
       <r>    1.5719    0.0000 </r>
       <r>    1.6390    0.0000 </r>
       <r>    1.8226    0.0000 </r>
       <r>    1.9178    0.0000 </r>
       <r>    2.0396    0.0000 </r>
       <r>    2.2216    0.0000 </r>
       <r>    2.2642    0.0000 </r>
       <r>    2.3337    0.0000 </r>
       <r>    2.3450    0.0000 </r>
       <r>    2.3981    0.0000 </r>
       <r>    2.4615    0.0000 </r>
       <r>    2.7987    0.0000 </r>
      </set>
      <set comment="kpoint 3">
       <r>  -31.7402    1.0000 </r>
       <r>  -22.1890    1.0000 </r>
       <r>  -21.8693    1.0000 </r>
       <r>  -21.6613    1.0000 </r>
       <r>  -21.4545    1.0000 </r>
       <r>  -21.0347    1.0000 </r>
       <r>  -20.8971    1.0000 </r>
       <r>  -20.7275    1.0000 </r>
       <r>  -20.4201    1.0000 </r>
       <r>  -20.1622    1.0000 </r>
       <r>  -19.7869    1.0000 </r>
       <r>  -19.6991    1.0000 </r>
       <r>  -19.3263    1.0000 </r>
       <r>  -19.2429    1.0000 </r>
       <r>  -19.0617    1.0000 </r>
       <r>  -18.5928    1.0000 </r>
       <r>  -18.4579    1.0000 </r>
       <r>  -18.1213    1.0000 </r>
       <r>  -18.0630    1.0000 </r>
       <r>  -17.5909    1.0000 </r>
       <r>  -17.4978    1.0000 </r>
       <r>  -17.3008    1.0000 </r>
       <r>  -17.2766    1.0000 </r>
       <r>  -16.8514    1.0000 </r>
       <r>  -16.6584    1.0000 </r>
       <r>  -16.1762    1.0000 </r>
       <r>  -15.9779    1.0000 </r>
       <r>  -15.8477    1.0000 </r>
       <r>  -15.2983    1.0000 </r>
       <r>  -15.1698    1.0000 </r>
       <r>  -15.1342    1.0000 </r>
       <r>  -14.8848    1.0000 </r>
       <r>  -14.7818    1.0000 </r>
       <r>  -14.4780    1.0000 </r>
       <r>  -14.4560    1.0000 </r>
       <r>  -13.7672    1.0000 </r>
       <r>  -13.7600    1.0000 </r>
       <r>  -13.1961    1.0000 </r>
       <r>  -13.0894    1.0000 </r>
       <r>  -12.9342    1.0000 </r>
       <r>  -12.9044    1.0000 </r>
       <r>  -12.5852    1.0000 </r>
       <r>  -12.5500    1.0000 </r>
       <r>  -12.3901    1.0000 </r>
       <r>  -12.0221    1.0000 </r>
       <r>  -11.6634    1.0000 </r>
       <r>  -11.4474    1.0000 </r>
       <r>  -11.2962    1.0000 </r>
       <r>  -11.1218    1.0000 </r>
       <r>  -10.9143    1.0000 </r>
       <r>  -10.8500    1.0000 </r>
       <r>  -10.5843    1.0000 </r>
       <r>  -10.5327    1.0000 </r>
       <r>  -10.2853    1.0000 </r>
       <r>  -10.2366    1.0000 </r>
       <r>  -10.1611    1.0000 </r>
       <r>  -10.0496    1.0000 </r>
       <r>   -9.8533    1.0000 </r>
       <r>   -9.8204    1.0000 </r>
       <r>   -9.6538    1.0000 </r>
       <r>   -9.6063    1.0000 </r>
       <r>   -9.5604    1.0000 </r>
       <r>   -9.5280    1.0000 </r>
       <r>   -9.3713    1.0000 </r>
       <r>   -9.3407    1.0000 </r>
       <r>   -9.2596    1.0000 </r>
       <r>   -9.1756    1.0000 </r>
       <r>   -9.0997    1.0000 </r>
       <r>   -9.0819    1.0000 </r>
       <r>   -8.8639    1.0000 </r>
       <r>   -8.7144    1.0000 </r>
       <r>   -8.6641    1.0000 </r>
       <r>   -8.5056    1.0000 </r>
       <r>   -8.4024    1.0000 </r>
       <r>   -8.2877    1.0000 </r>
       <r>   -8.1331    1.0000 </r>
       <r>   -8.0931    1.0000 </r>
       <r>   -8.0663    1.0000 </r>
       <r>   -7.9713    1.0000 </r>
       <r>   -7.8080    1.0000 </r>
       <r>   -7.6203    1.0000 </r>
       <r>   -7.3604    1.0000 </r>
       <r>   -7.3356    1.0000 </r>
       <r>   -7.2667    1.0000 </r>
       <r>   -7.1955    1.0000 </r>
       <r>   -6.9201    1.0000 </r>
       <r>   -6.8719    1.0000 </r>
       <r>   -6.6954    1.0000 </r>
       <r>   -6.5905    1.0000 </r>
       <r>   -6.3485    1.0000 </r>
       <r>   -6.1858    1.0000 </r>
       <r>   -6.0736    1.0000 </r>
       <r>   -5.9220    1.0000 </r>
       <r>   -5.7389    1.0000 </r>
       <r>   -5.6405    1.0000 </r>
       <r>   -5.3224    1.0000 </r>
       <r>   -5.1147    1.0000 </r>
       <r>   -4.9701    1.0000 </r>
       <r>   -4.9226    1.0000 </r>
       <r>   -4.2698    1.0000 </r>
       <r>   -4.1685    1.0000 </r>
       <r>   -3.3365    1.0000 </r>
       <r>   -3.1369    0.9996 </r>
       <r>   -2.8039    0.0000 </r>
       <r>   -1.5913    0.0000 </r>
       <r>   -1.4236    0.0000 </r>
       <r>   -0.8400    0.0000 </r>
       <r>   -0.8191    0.0000 </r>
       <r>   -0.7062    0.0000 </r>
       <r>   -0.6679    0.0000 </r>
       <r>   -0.1286    0.0000 </r>
       <r>   -0.0061    0.0000 </r>
       <r>    0.2930    0.0000 </r>
       <r>    0.7067    0.0000 </r>
       <r>    0.7269    0.0000 </r>
       <r>    1.1013    0.0000 </r>
       <r>    1.1753    0.0000 </r>
       <r>    1.3651    0.0000 </r>
       <r>    1.4687    0.0000 </r>
       <r>    1.5398    0.0000 </r>
       <r>    1.5725    0.0000 </r>
       <r>    1.6399    0.0000 </r>
       <r>    1.8237    0.0000 </r>
       <r>    1.9193    0.0000 </r>
       <r>    2.0415    0.0000 </r>
       <r>    2.2292    0.0000 </r>
       <r>    2.2717    0.0000 </r>
       <r>    2.3423    0.0000 </r>
       <r>    2.4303    0.0000 </r>
       <r>    2.7513    0.0000 </r>
       <r>    3.2567    0.0000 </r>
       <r>    3.6068    0.0000 </r>
      </set>
      <set comment="kpoint 4">
       <r>  -31.7402    1.0000 </r>
       <r>  -22.0805    1.0000 </r>
       <r>  -22.0076    1.0000 </r>
       <r>  -21.8017    1.0000 </r>
       <r>  -21.1720    1.0000 </r>
       <r>  -21.1505    1.0000 </r>
       <r>  -20.8674    1.0000 </r>
       <r>  -20.4132    1.0000 </r>
       <r>  -20.3388    1.0000 </r>
       <r>  -20.1720    1.0000 </r>
       <r>  -20.1504    1.0000 </r>
       <r>  -20.1430    1.0000 </r>
       <r>  -19.5669    1.0000 </r>
       <r>  -18.8263    1.0000 </r>
       <r>  -18.6746    1.0000 </r>
       <r>  -18.3725    1.0000 </r>
       <r>  -18.3489    1.0000 </r>
       <r>  -18.3364    1.0000 </r>
       <r>  -17.9300    1.0000 </r>
       <r>  -17.8015    1.0000 </r>
       <r>  -17.6016    1.0000 </r>
       <r>  -17.2615    1.0000 </r>
       <r>  -17.1532    1.0000 </r>
       <r>  -17.1207    1.0000 </r>
       <r>  -16.5431    1.0000 </r>
       <r>  -16.4377    1.0000 </r>
       <r>  -16.2843    1.0000 </r>
       <r>  -15.8085    1.0000 </r>
       <r>  -15.6289    1.0000 </r>
       <r>  -15.1754    1.0000 </r>
       <r>  -14.9695    1.0000 </r>
       <r>  -14.6525    1.0000 </r>
       <r>  -13.9601    1.0000 </r>
       <r>  -13.9394    1.0000 </r>
       <r>  -13.9246    1.0000 </r>
       <r>  -13.8736    1.0000 </r>
       <r>  -13.8639    1.0000 </r>
       <r>  -13.7920    1.0000 </r>
       <r>  -13.6746    1.0000 </r>
       <r>  -13.4949    1.0000 </r>
       <r>  -13.0377    1.0000 </r>
       <r>  -12.4746    1.0000 </r>
       <r>  -12.2540    1.0000 </r>
       <r>  -12.0714    1.0000 </r>
       <r>  -11.8235    1.0000 </r>
       <r>  -11.7732    1.0000 </r>
       <r>  -11.5633    1.0000 </r>
       <r>  -11.5456    1.0000 </r>
       <r>  -11.5228    1.0000 </r>
       <r>  -10.9292    1.0000 </r>
       <r>  -10.8177    1.0000 </r>
       <r>  -10.5303    1.0000 </r>
       <r>  -10.2061    1.0000 </r>
       <r>  -10.2038    1.0000 </r>
       <r>  -10.1941    1.0000 </r>
       <r>  -10.0948    1.0000 </r>
       <r>  -10.0527    1.0000 </r>
       <r>  -10.0217    1.0000 </r>
       <r>   -9.9029    1.0000 </r>
       <r>   -9.7518    1.0000 </r>
       <r>   -9.7482    1.0000 </r>
       <r>   -9.5645    1.0000 </r>
       <r>   -9.4409    1.0000 </r>
       <r>   -9.4077    1.0000 </r>
       <r>   -9.1980    1.0000 </r>
       <r>   -9.0460    1.0000 </r>
       <r>   -9.0338    1.0000 </r>
       <r>   -8.9020    1.0000 </r>
       <r>   -8.8852    1.0000 </r>
       <r>   -8.6859    1.0000 </r>
       <r>   -8.6372    1.0000 </r>
       <r>   -8.6354    1.0000 </r>
       <r>   -8.6242    1.0000 </r>
       <r>   -8.5846    1.0000 </r>
       <r>   -8.3745    1.0000 </r>
       <r>   -8.2515    1.0000 </r>
       <r>   -8.1648    1.0000 </r>
       <r>   -8.0350    1.0000 </r>
       <r>   -7.9839    1.0000 </r>
       <r>   -7.8797    1.0000 </r>
       <r>   -7.8579    1.0000 </r>
       <r>   -7.8548    1.0000 </r>
       <r>   -7.2249    1.0000 </r>
       <r>   -7.1841    1.0000 </r>
       <r>   -7.1285    1.0000 </r>
       <r>   -6.8846    1.0000 </r>
       <r>   -6.7224    1.0000 </r>
       <r>   -6.6128    1.0000 </r>
       <r>   -6.4601    1.0000 </r>
       <r>   -6.2677    1.0000 </r>
       <r>   -6.1024    1.0000 </r>
       <r>   -5.9166    1.0000 </r>
       <r>   -5.9111    1.0000 </r>
       <r>   -5.8977    1.0000 </r>
       <r>   -5.4521    1.0000 </r>
       <r>   -5.4254    1.0000 </r>
       <r>   -5.1218    1.0000 </r>
       <r>   -5.0141    1.0000 </r>
       <r>   -4.9803    1.0000 </r>
       <r>   -4.9577    1.0000 </r>
       <r>   -3.7325    1.0000 </r>
       <r>   -3.4584    1.0000 </r>
       <r>   -3.2800    1.0000 </r>
       <r>   -2.3872    0.0000 </r>
       <r>   -2.2241    0.0000 </r>
       <r>   -0.9285    0.0000 </r>
       <r>   -0.8821    0.0000 </r>
       <r>   -0.8678    0.0000 </r>
       <r>   -0.5385    0.0000 </r>
       <r>   -0.2639    0.0000 </r>
       <r>   -0.2111    0.0000 </r>
       <r>    0.2520    0.0000 </r>
       <r>    0.2581    0.0000 </r>
       <r>    0.2605    0.0000 </r>
       <r>    0.5992    0.0000 </r>
       <r>    0.7926    0.0000 </r>
       <r>    0.9498    0.0000 </r>
       <r>    0.9758    0.0000 </r>
       <r>    1.0634    0.0000 </r>
       <r>    1.7376    0.0000 </r>
       <r>    1.7505    0.0000 </r>
       <r>    1.7737    0.0000 </r>
       <r>    1.8290    0.0000 </r>
       <r>    2.1125    0.0000 </r>
       <r>    2.1156    0.0000 </r>
       <r>    2.1180    0.0000 </r>
       <r>    2.2489    0.0000 </r>
       <r>    2.2499    0.0000 </r>
       <r>    2.3638    0.0000 </r>
       <r>    3.0001    0.0000 </r>
       <r>    3.0131    0.0000 </r>
       <r>    3.0360    0.0000 </r>
      </set>
     </set>
    </set>
   </array>
  </eigenvalues>
  <separator name="orbital magnetization" >
   <v name="MAGDIPOLOUT">      0.00000000      0.00000000      0.00000000</v>
  </separator>
  <dos>
   <i name="efermi">     -3.01720563 </i>
   <total>
    <array>
     <dimension dim="1">gridpoints</dimension>
     <dimension dim="2">spin</dimension>
     <field>energy</field>
     <field>total</field>
     <field>integrated</field>
     <set>
      <set comment="spin 1">
       <r>   -33.5076     0.0000     0.0000 </r>
       <r>   -33.3780     0.0000     0.0000 </r>
       <r>   -33.2484     0.0000     0.0000 </r>
       <r>   -33.1188     0.0000     0.0000 </r>
       <r>   -32.9892     0.0000     0.0000 </r>
       <r>   -32.8596     0.0000     0.0000 </r>
       <r>   -32.7300     0.0000     0.0000 </r>
       <r>   -32.6004     0.0000     0.0000 </r>
       <r>   -32.4707     0.0000     0.0000 </r>
       <r>   -32.3411     0.0000     0.0000 </r>
       <r>   -32.2115     0.0000     0.0000 </r>
       <r>   -32.0819     0.0000     0.0000 </r>
       <r>   -31.9523     0.0000     0.0000 </r>
       <r>   -31.8227     0.1512     0.0196 </r>
       <r>   -31.6931    13.8686     1.8170 </r>
       <r>   -31.5635     1.4116     2.0000 </r>
       <r>   -31.4339     0.0000     2.0000 </r>
       <r>   -31.3043     0.0000     2.0000 </r>
       <r>   -31.1747     0.0000     2.0000 </r>
       <r>   -31.0451     0.0000     2.0000 </r>
       <r>   -30.9155     0.0000     2.0000 </r>
       <r>   -30.7859     0.0000     2.0000 </r>
       <r>   -30.6563     0.0000     2.0000 </r>
       <r>   -30.5267     0.0000     2.0000 </r>
       <r>   -30.3971     0.0000     2.0000 </r>
       <r>   -30.2674     0.0000     2.0000 </r>
       <r>   -30.1378     0.0000     2.0000 </r>
       <r>   -30.0082     0.0000     2.0000 </r>
       <r>   -29.8786     0.0000     2.0000 </r>
       <r>   -29.7490     0.0000     2.0000 </r>
       <r>   -29.6194     0.0000     2.0000 </r>
       <r>   -29.4898     0.0000     2.0000 </r>
       <r>   -29.3602     0.0000     2.0000 </r>
       <r>   -29.2306     0.0000     2.0000 </r>
       <r>   -29.1010     0.0000     2.0000 </r>
       <r>   -28.9714     0.0000     2.0000 </r>
       <r>   -28.8418     0.0000     2.0000 </r>
       <r>   -28.7122     0.0000     2.0000 </r>
       <r>   -28.5826     0.0000     2.0000 </r>
       <r>   -28.4530     0.0000     2.0000 </r>
       <r>   -28.3234     0.0000     2.0000 </r>
       <r>   -28.1938     0.0000     2.0000 </r>
       <r>   -28.0641     0.0000     2.0000 </r>
       <r>   -27.9345     0.0000     2.0000 </r>
       <r>   -27.8049     0.0000     2.0000 </r>
       <r>   -27.6753     0.0000     2.0000 </r>
       <r>   -27.5457     0.0000     2.0000 </r>
       <r>   -27.4161     0.0000     2.0000 </r>
       <r>   -27.2865     0.0000     2.0000 </r>
       <r>   -27.1569     0.0000     2.0000 </r>
       <r>   -27.0273     0.0000     2.0000 </r>
       <r>   -26.8977     0.0000     2.0000 </r>
       <r>   -26.7681     0.0000     2.0000 </r>
       <r>   -26.6385     0.0000     2.0000 </r>
       <r>   -26.5089     0.0000     2.0000 </r>
       <r>   -26.3793     0.0000     2.0000 </r>
       <r>   -26.2497     0.0000     2.0000 </r>
       <r>   -26.1201     0.0000     2.0000 </r>
       <r>   -25.9905     0.0000     2.0000 </r>
       <r>   -25.8609     0.0000     2.0000 </r>
       <r>   -25.7312     0.0000     2.0000 </r>
       <r>   -25.6016     0.0000     2.0000 </r>
       <r>   -25.4720     0.0000     2.0000 </r>
       <r>   -25.3424     0.0000     2.0000 </r>
       <r>   -25.2128     0.0000     2.0000 </r>
       <r>   -25.0832     0.0000     2.0000 </r>
       <r>   -24.9536     0.0000     2.0000 </r>
       <r>   -24.8240     0.0000     2.0000 </r>
       <r>   -24.6944     0.0000     2.0000 </r>
       <r>   -24.5648     0.0000     2.0000 </r>
       <r>   -24.4352     0.0000     2.0000 </r>
       <r>   -24.3056     0.0000     2.0000 </r>
       <r>   -24.1760     0.0000     2.0000 </r>
       <r>   -24.0464     0.0000     2.0000 </r>
       <r>   -23.9168     0.0000     2.0000 </r>
       <r>   -23.7872     0.0000     2.0000 </r>
       <r>   -23.6576     0.0000     2.0000 </r>
       <r>   -23.5279     0.0000     2.0000 </r>
       <r>   -23.3983     0.0000     2.0000 </r>
       <r>   -23.2687     0.0000     2.0000 </r>
       <r>   -23.1391     0.0000     2.0000 </r>
       <r>   -23.0095     0.0000     2.0000 </r>
       <r>   -22.8799     0.0000     2.0000 </r>
       <r>   -22.7503     0.0000     2.0000 </r>
       <r>   -22.6207     0.0000     2.0000 </r>
       <r>   -22.4911     0.0000     2.0000 </r>
       <r>   -22.3615     0.0090     2.0012 </r>
       <r>   -22.2319     2.6324     2.3423 </r>
       <r>   -22.1023    10.2215     3.6671 </r>
       <r>   -21.9727     5.4568     4.3743 </r>
       <r>   -21.8431     8.8830     5.5256 </r>
       <r>   -21.7135     6.0724     6.3126 </r>
       <r>   -21.5839     9.4823     7.5416 </r>
       <r>   -21.4543     8.6566     8.6636 </r>
       <r>   -21.3246    10.1842     9.9835 </r>
       <r>   -21.1950     1.3668    10.1606 </r>
       <r>   -21.0654     7.5651    11.1411 </r>
       <r>   -20.9358     9.8863    12.4224 </r>
       <r>   -20.8062    13.7780    14.2082 </r>
       <r>   -20.6766     9.6217    15.4552 </r>
       <r>   -20.5470     0.7764    15.5558 </r>
       <r>   -20.4174     7.0500    16.4695 </r>
       <r>   -20.2878     9.8413    17.7450 </r>
       <r>   -20.1582    10.6591    19.1265 </r>
       <r>   -20.0286    10.1649    20.4439 </r>
       <r>   -19.8990     0.9142    20.5624 </r>
       <r>   -19.7694     9.8579    21.8401 </r>
       <r>   -19.6398    12.8453    23.5049 </r>
       <r>   -19.5102     7.9588    24.5364 </r>
       <r>   -19.3806     1.6493    24.7501 </r>
       <r>   -19.2510    13.7714    26.5350 </r>
       <r>   -19.1213     8.3008    27.6108 </r>
       <r>   -18.9917     9.6323    28.8592 </r>
       <r>   -18.8621     3.7245    29.3420 </r>
       <r>   -18.7325     3.5526    29.8024 </r>
       <r>   -18.6029    11.6383    31.3108 </r>
       <r>   -18.4733    10.4485    32.6650 </r>
       <r>   -18.3437    12.9298    34.3407 </r>
       <r>   -18.2141     4.2730    34.8945 </r>
       <r>   -18.0845    11.5045    36.3856 </r>
       <r>   -17.9549     9.8815    37.6663 </r>
       <r>   -17.8253     5.0603    38.3221 </r>
       <r>   -17.6957     2.6825    38.6698 </r>
       <r>   -17.5661    10.9422    40.0880 </r>
       <r>   -17.4365    12.6135    41.7228 </r>
       <r>   -17.3069     7.2236    42.6590 </r>
       <r>   -17.1773    18.1852    45.0159 </r>
       <r>   -17.0477     6.5915    45.8702 </r>
       <r>   -16.9180     3.0166    46.2612 </r>
       <r>   -16.7884     9.6037    47.5059 </r>
       <r>   -16.6588     5.4837    48.2166 </r>
       <r>   -16.5292     7.6424    49.2071 </r>
       <r>   -16.3996     8.8745    50.3573 </r>
       <r>   -16.2700     2.9670    50.7418 </r>
       <r>   -16.1404     9.8266    52.0154 </r>
       <r>   -16.0108     6.0691    52.8020 </r>
       <r>   -15.8812    12.7547    54.4550 </r>
       <r>   -15.7516    11.7032    55.9719 </r>
       <r>   -15.6220     2.1993    56.2569 </r>
       <r>   -15.4924     4.2249    56.8045 </r>
       <r>   -15.3628     2.7169    57.1566 </r>
       <r>   -15.2332    10.1786    58.4758 </r>
       <r>   -15.1036    21.9867    61.3254 </r>
       <r>   -14.9740     5.0931    61.9855 </r>
       <r>   -14.8444    11.2115    63.4386 </r>
       <r>   -14.7147    11.0538    64.8712 </r>
       <r>   -14.5851     6.5490    65.7200 </r>
       <r>   -14.4555    13.2383    67.4358 </r>
       <r>   -14.3259     7.7814    68.4443 </r>
       <r>   -14.1963     0.4365    68.5008 </r>
       <r>   -14.0667     4.6583    69.1046 </r>
       <r>   -13.9371     7.1694    70.0338 </r>
       <r>   -13.8075    14.8064    71.9528 </r>
       <r>   -13.6779    22.3611    74.8509 </r>
       <r>   -13.5483     2.2318    75.1402 </r>
       <r>   -13.4187     3.1517    75.5486 </r>
       <r>   -13.2891     0.0972    75.5612 </r>
       <r>   -13.1595     8.9436    76.7204 </r>
       <r>   -13.0299    13.6340    78.4874 </r>
       <r>   -12.9003    18.9763    80.9469 </r>
       <r>   -12.7707     6.4103    81.7777 </r>
       <r>   -12.6411     0.6396    81.8606 </r>
       <r>   -12.5114    18.8424    84.3027 </r>
       <r>   -12.3818    10.5963    85.6760 </r>
       <r>   -12.2522     5.9962    86.4531 </r>
       <r>   -12.1226     1.9314    86.7035 </r>
       <r>   -11.9930    12.7499    88.3559 </r>
       <r>   -11.8634     2.8725    88.7282 </r>
       <r>   -11.7338    10.7080    90.1160 </r>
       <r>   -11.6042    20.8420    92.8173 </r>
       <r>   -11.4746    12.7166    94.4654 </r>
       <r>   -11.3450     9.2523    95.6646 </r>
       <r>   -11.2154     9.3733    96.8794 </r>
       <r>   -11.0858     8.7732    98.0165 </r>
       <r>   -10.9562     3.5826    98.4808 </r>
       <r>   -10.8266    21.5393   101.2724 </r>
       <r>   -10.6970     7.3296   102.2224 </r>
       <r>   -10.5674     9.2212   103.4175 </r>
       <r>   -10.4378    15.4151   105.4154 </r>
       <r>   -10.3081     6.5536   106.2648 </r>
       <r>   -10.1785    32.2693   110.4470 </r>
       <r>   -10.0489    22.5117   113.3647 </r>
       <r>    -9.9193    11.4898   114.8538 </r>
       <r>    -9.7897    21.1095   117.5898 </r>
       <r>    -9.6601    15.9824   119.6612 </r>
       <r>    -9.5305    32.1024   123.8218 </r>
       <r>    -9.4009    15.7406   125.8619 </r>
       <r>    -9.2713    30.1753   129.7728 </r>
       <r>    -9.1417    22.1058   132.6378 </r>
       <r>    -9.0121    28.8870   136.3818 </r>
       <r>    -8.8825    21.9072   139.2211 </r>
       <r>    -8.7529    12.6407   140.8594 </r>
       <r>    -8.6233    27.6943   144.4487 </r>
       <r>    -8.4937    15.0536   146.3997 </r>
       <r>    -8.3641    16.6019   148.5514 </r>
       <r>    -8.2345    14.6718   150.4530 </r>
       <r>    -8.1048    18.4281   152.8414 </r>
       <r>    -7.9752    27.4851   156.4036 </r>
       <r>    -7.8456    16.1300   158.4942 </r>
       <r>    -7.7160    15.0076   160.4392 </r>
       <r>    -7.5864     8.5528   161.5477 </r>
       <r>    -7.4568     1.8114   161.7825 </r>
       <r>    -7.3272    18.2634   164.1495 </r>
       <r>    -7.1976    32.3187   168.3382 </r>
       <r>    -7.0680    16.0717   170.4212 </r>
       <r>    -6.9384     3.8377   170.9186 </r>
       <r>    -6.8088    20.0338   173.5151 </r>
       <r>    -6.6792    12.0219   175.0732 </r>
       <r>    -6.5496    16.4878   177.2101 </r>
       <r>    -6.4200     7.5739   178.1917 </r>
       <r>    -6.2904    11.7239   179.7112 </r>
       <r>    -6.1608    15.3353   181.6988 </r>
       <r>    -6.0312    14.8210   183.6196 </r>
       <r>    -5.9015    17.0308   185.8269 </r>
       <r>    -5.7719     9.9884   187.1215 </r>
       <r>    -5.6423    13.3836   188.8561 </r>
       <r>    -5.5127     5.5668   189.5776 </r>
       <r>    -5.3831     6.6429   190.4385 </r>
       <r>    -5.2535    10.1547   191.7547 </r>
       <r>    -5.1239     7.5969   192.7393 </r>
       <r>    -4.9943    14.9039   194.6709 </r>
       <r>    -4.8647    23.4250   197.7069 </r>
       <r>    -4.7351     3.2517   198.1283 </r>
       <r>    -4.6055     0.7244   198.2222 </r>
       <r>    -4.4759     0.0000   198.2222 </r>
       <r>    -4.3463     0.2256   198.2515 </r>
       <r>    -4.2167    15.0386   200.2005 </r>
       <r>    -4.0871    10.3471   201.5416 </r>
       <r>    -3.9575     0.1077   201.5556 </r>
       <r>    -3.8279     0.0120   201.5571 </r>
       <r>    -3.6982     2.8475   201.9262 </r>
       <r>    -3.5686     0.5728   202.0004 </r>
       <r>    -3.4390     2.4427   202.3170 </r>
       <r>    -3.3094     9.6973   203.5738 </r>
       <r>    -3.1798     9.0192   204.7428 </r>
       <r>    -3.0502     9.6271   205.9905 </r>
       <r>    -2.9206     0.8512   206.1008 </r>
       <r>    -2.7910     7.5478   207.0790 </r>
       <r>    -2.6614     3.6763   207.5555 </r>
       <r>    -2.5318     0.0004   207.5556 </r>
       <r>    -2.4022     1.1526   207.7049 </r>
       <r>    -2.2726     2.5672   208.0377 </r>
       <r>    -2.1430     3.1014   208.4396 </r>
       <r>    -2.0134     0.0372   208.4444 </r>
       <r>    -1.8838     0.0000   208.4444 </r>
       <r>    -1.7542     0.0000   208.4444 </r>
       <r>    -1.6246     1.7808   208.6752 </r>
       <r>    -1.4949     9.4761   209.9034 </r>
       <r>    -1.3653    13.9298   211.7088 </r>
       <r>    -1.2357     0.5322   211.7778 </r>
       <r>    -1.1061     0.0020   211.7780 </r>
       <r>    -0.9765     2.5833   212.1129 </r>
       <r>    -0.8469    16.1537   214.2065 </r>
       <r>    -0.7173    20.2280   216.8281 </r>
       <r>    -0.5877    16.2323   218.9319 </r>
       <r>    -0.4581     4.7582   219.5486 </r>
       <r>    -0.3285     0.1711   219.5708 </r>
       <r>    -0.1989     5.6165   220.2987 </r>
       <r>    -0.0693    11.3119   221.7648 </r>
       <r>     0.0603    10.0782   223.0710 </r>
       <r>     0.1899     0.6349   223.1533 </r>
       <r>     0.3195    17.5251   225.4247 </r>
       <r>     0.4491     6.8074   226.3069 </r>
       <r>     0.5787     3.1539   226.7157 </r>
       <r>     0.7084    11.5206   228.2088 </r>
       <r>     0.8380    16.6814   230.3708 </r>
       <r>     0.9676     6.0638   231.1567 </r>
       <r>     1.0972    10.6582   232.5381 </r>
       <r>     1.2268    15.7407   234.5782 </r>
       <r>     1.3564     7.6355   235.5678 </r>
       <r>     1.4860    14.6291   237.4638 </r>
       <r>     1.6156    24.3869   240.6245 </r>
       <r>     1.7452    15.2393   242.5996 </r>
       <r>     1.8748    27.5476   246.1699 </r>
       <r>     2.0044    12.5577   247.7975 </r>
       <r>     2.1340    17.8944   250.1167 </r>
       <r>     2.2636    26.1551   253.5065 </r>
       <r>     2.3932    34.5003   257.9780 </r>
       <r>     2.5228    15.3102   259.9623 </r>
       <r>     2.6524     2.7203   260.3149 </r>
       <r>     2.7820     5.9520   261.0863 </r>
       <r>     2.9117     5.3596   261.7809 </r>
       <r>     3.0413     7.6025   262.7662 </r>
       <r>     3.1709     2.6868   263.1144 </r>
       <r>     3.3005     3.0333   263.5076 </r>
       <r>     3.4301     0.3702   263.5556 </r>
       <r>     3.5597     0.3130   263.5961 </r>
       <r>     3.6893     3.0825   263.9956 </r>
       <r>     3.8189     0.0337   264.0000 </r>
       <r>     3.9485     0.0000   264.0000 </r>
       <r>     4.0781     0.0000   264.0000 </r>
       <r>     4.2077     0.0000   264.0000 </r>
       <r>     4.3373     0.0000   264.0000 </r>
       <r>     4.4669     0.0000   264.0000 </r>
       <r>     4.5965     0.0000   264.0000 </r>
       <r>     4.7261     0.0000   264.0000 </r>
       <r>     4.8557     0.0000   264.0000 </r>
       <r>     4.9853     0.0000   264.0000 </r>
       <r>     5.1149     0.0000   264.0000 </r>
       <r>     5.2446     0.0000   264.0000 </r>
       <r>     5.3742     0.0000   264.0000 </r>
      </set>
     </set>
    </array>
   </total>
  </dos>
 </calculation>
 <structure name="finalpos" >
  <crystal>
   <varray name="basis" >
    <v>      12.30000019       0.00000000       0.00000000 </v>
    <v>       6.15000080      10.65211222       0.00000000 </v>
    <v>       0.00000000       0.00000000      20.00000000 </v>
   </varray>
   <i name="volume">   2620.41964732 </i>
   <varray name="rec_basis" >
    <v>       0.08130081      -0.04693905       0.00000000 </v>
    <v>       0.00000000       0.09387809       0.00000000 </v>
    <v>       0.00000000       0.00000000       0.05000000 </v>
   </varray>
  </crystal>
  <varray name="positions" >
   <v>       0.00000000       0.00000000       0.41799748 </v>
   <v>       0.20000000       0.00000000       0.41799748 </v>
   <v>       0.40000000       0.00000000       0.41799748 </v>
   <v>       0.60000000       0.00000000       0.41799748 </v>
   <v>       0.80000000       0.00000000       0.41799748 </v>
   <v>       0.00000000       0.20000000       0.41799748 </v>
   <v>       0.20000000       0.20000000       0.41799748 </v>
   <v>       0.40000000       0.20000000       0.41799748 </v>
   <v>       0.60000000       0.20000000       0.41799748 </v>
   <v>       0.80000000       0.20000000       0.41799748 </v>
   <v>       0.00000000       0.40000000       0.41799748 </v>
   <v>       0.20000000       0.40000000       0.41799748 </v>
   <v>       0.40000000       0.40000000       0.41799748 </v>
   <v>       0.60000000       0.40000000       0.41799748 </v>
   <v>       0.80000000       0.40000000       0.41799748 </v>
   <v>       0.00000000       0.60000000       0.41799748 </v>
   <v>       0.20000000       0.60000000       0.41799748 </v>
   <v>       0.40000000       0.60000000       0.41799748 </v>
   <v>       0.60000000       0.60000000       0.41799748 </v>
   <v>       0.80000000       0.60000000       0.41749748 </v>
   <v>       0.00000000       0.80000000       0.41799748 </v>
   <v>       0.20000000       0.80000000       0.41799748 </v>
   <v>       0.40000000       0.80000000       0.41799748 </v>
   <v>       0.60000000       0.80000000       0.41799748 </v>
   <v>       0.80000000       0.80000000       0.41799748 </v>
   <v>       0.06666667       0.06666660       0.41800609 </v>
   <v>       0.26666667       0.06666660       0.41800609 </v>
   <v>       0.46666667       0.06666660       0.41800609 </v>
   <v>       0.66666667       0.06666660       0.41800609 </v>
   <v>       0.86666667       0.06666660       0.41800609 </v>
   <v>       0.06666667       0.26666660       0.41800609 </v>
   <v>       0.26666667       0.26666660       0.41800609 </v>
   <v>       0.46666667       0.26666660       0.41800609 </v>
   <v>       0.66666667       0.26666660       0.41800609 </v>
   <v>       0.86666667       0.26666660       0.41800609 </v>
   <v>       0.06666667       0.46666660       0.41800609 </v>
   <v>       0.26666667       0.46666660       0.41800609 </v>
   <v>       0.46666667       0.46666660       0.41800609 </v>
   <v>       0.66666667       0.46666660       0.41800609 </v>
   <v>       0.86666667       0.46666660       0.41800609 </v>
   <v>       0.06666667       0.66666660       0.41800609 </v>
   <v>       0.26666667       0.66666660       0.41800609 </v>
   <v>       0.46666667       0.66666660       0.41800609 </v>
   <v>       0.66666667       0.66666660       0.41800609 </v>
   <v>       0.86666667       0.66666660       0.41800609 </v>
   <v>       0.06666667       0.86666660       0.41800609 </v>
   <v>       0.26666667       0.86666660       0.41800609 </v>
   <v>       0.46666667       0.86666660       0.41800609 </v>
   <v>       0.66666667       0.86666660       0.41800609 </v>
   <v>       0.86666667       0.86666660       0.41800609 </v>
   <v>       0.40000000       0.40000000       0.46800609 </v>
  </varray>
  <varray name="velocities" >
   <v>       0.00000000       0.00000000       0.00000000 </v>
   <v>       0.00000000       0.00000000       0.00000000 </v>
   <v>       0.00000000       0.00000000       0.00000000 </v>
   <v>       0.00000000       0.00000000       0.00000000 </v>
   <v>       0.00000000       0.00000000       0.00000000 </v>
   <v>       0.00000000       0.00000000       0.00000000 </v>
   <v>       0.00000000       0.00000000       0.00000000 </v>
   <v>       0.00000000       0.00000000       0.00000000 </v>
   <v>       0.00000000       0.00000000       0.00000000 </v>
   <v>       0.00000000       0.00000000       0.00000000 </v>
   <v>       0.00000000       0.00000000       0.00000000 </v>
   <v>       0.00000000       0.00000000       0.00000000 </v>
   <v>       0.00000000       0.00000000       0.00000000 </v>
   <v>       0.00000000       0.00000000       0.00000000 </v>
   <v>       0.00000000       0.00000000       0.00000000 </v>
   <v>       0.00000000       0.00000000       0.00000000 </v>
   <v>       0.00000000       0.00000000       0.00000000 </v>
   <v>       0.00000000       0.00000000       0.00000000 </v>
   <v>       0.00000000       0.00000000       0.00000000 </v>
   <v>       0.00000000       0.00000000       0.00000000 </v>
   <v>       0.00000000       0.00000000       0.00000000 </v>
   <v>       0.00000000       0.00000000       0.00000000 </v>
   <v>       0.00000000       0.00000000       0.00000000 </v>
   <v>       0.00000000       0.00000000       0.00000000 </v>
   <v>       0.00000000       0.00000000       0.00000000 </v>
   <v>       0.00000000       0.00000000       0.00000000 </v>
   <v>       0.00000000       0.00000000       0.00000000 </v>
   <v>       0.00000000       0.00000000       0.00000000 </v>
   <v>       0.00000000       0.00000000       0.00000000 </v>
   <v>       0.00000000       0.00000000       0.00000000 </v>
   <v>       0.00000000       0.00000000       0.00000000 </v>
   <v>       0.00000000       0.00000000       0.00000000 </v>
   <v>       0.00000000       0.00000000       0.00000000 </v>
   <v>       0.00000000       0.00000000       0.00000000 </v>
   <v>       0.00000000       0.00000000       0.00000000 </v>
   <v>       0.00000000       0.00000000       0.00000000 </v>
   <v>       0.00000000       0.00000000       0.00000000 </v>
   <v>       0.00000000       0.00000000       0.00000000 </v>
   <v>       0.00000000       0.00000000       0.00000000 </v>
   <v>       0.00000000       0.00000000       0.00000000 </v>
   <v>       0.00000000       0.00000000       0.00000000 </v>
   <v>       0.00000000       0.00000000       0.00000000 </v>
   <v>       0.00000000       0.00000000       0.00000000 </v>
   <v>       0.00000000       0.00000000       0.00000000 </v>
   <v>       0.00000000       0.00000000       0.00000000 </v>
   <v>       0.00000000       0.00000000       0.00000000 </v>
   <v>       0.00000000       0.00000000       0.00000000 </v>
   <v>       0.00000000       0.00000000       0.00000000 </v>
   <v>       0.00000000       0.00000000       0.00000000 </v>
   <v>       0.00000000       0.00000000       0.00000000 </v>
   <v>       0.00000000       0.00000000       0.00000000 </v>
  </varray>
 </structure>
</modeling>
