       N       E                     dE             d eps       ncg     rms          rms(c)
DAV:   1     0.124841647637E+04    0.12484E+04   -0.69015E+04 51072   0.104E+03
DAV:   2    -0.253953805058E+03   -0.15024E+04   -0.14232E+04 72840   0.258E+02
DAV:   3    -0.479137760972E+03   -0.22518E+03   -0.22314E+03 60192   0.103E+02
DAV:   4    -0.485948852304E+03   -0.68111E+01   -0.67559E+01 60736   0.219E+01
DAV:   5    -0.486157575609E+03   -0.20872E+00   -0.20824E+00 66608   0.339E+00
RMM:   6    -0.486162847964E+03   -0.52724E-02   -0.52723E-02 54486   0.599E-01
RMM:   7    -0.486163500279E+03   -0.65232E-03   -0.64570E-03 77699   0.168E-01
RMM:   8    -0.486163506791E+03   -0.65121E-05   -0.68929E-05 65919   0.130E-02
RMM:   9    -0.486163507158E+03   -0.36672E-06   -0.35582E-06 42024   0.371E-03
   1 F= -.48616351E+03 E0= -.48615495E+03  d E =-.171187E-01
