 vasp.5.4.4.18Apr17-6-g9f103f2a35 (build Aug 02 2018 15:13:56) complex          
  
 executed on             LinuxIFC date 2020.05.31  09:23:19
 running on    4 total cores
 distrk:  each k-point on    4 cores,    1 groups
 distr:  one band on NCORES_PER_BAND=   1 cores,    4 groups


--------------------------------------------------------------------------------------------------------


 INCAR:
 POTCAR:    PAW C                                 
 POTCAR:    PAW C                                 
   VRHFIN =C: s2p2                                                              
   LEXCH  = CA                                                                  
   EATOM  =   146.6877 eV,   10.7812 Ry                                         
                                                                                
   TITEL  = PAW C                                                               
   LULTRA =        F    use ultrasoft PP ?                                      
   IUNSCR =        0    unscreen: 0-lin 1-nonlin 2-no                           
   RPACOR =     .000    partial core radius                                     
   POMASS =   12.011; ZVAL   =    4.000    mass and valenz                      
   RCORE  =    1.500    outmost cutoff radius                                   
   RWIGS  =    1.630; RWIGS  =     .863    wigner-seitz radius (au A)           
   ENMAX  =  400.000; ENMIN  =  300.000 eV                                      
   ICORE  =        2    local potential                                         
   LCOR   =        T    correct aug charges                                     
   LPAW   =        T    paw PP                                                  
   EAUG   =  644.873                                                            
   DEXC   =     .000                                                            
   RMAX   =    2.266    core radius for proj-oper                               
   RAUG   =    1.300    factor for augmentation sphere                          
   RDEP   =    1.501    radius for radial grids                                 
   RDEPT  =    1.300    core radius for aug-charge                              
   QCUT   =   -5.516; QGAM   =   11.032    optimization parameters              
                                                                                
   Description                                                                  
     l     E      TYP  RCUT    TYP  RCUT                                        
     0   .000     23  1.200                                                     
     0   .000     23  1.200                                                     
     1   .000     23  1.500                                                     
     1  2.500     23  1.500                                                     
     2   .000      7  1.500                                                     
  local pseudopotential read in
  atomic valenz-charges read in
  non local Contribution for L=           0  read in
    real space projection operators read in
  non local Contribution for L=           0  read in
    real space projection operators read in
  non local Contribution for L=           1  read in
    real space projection operators read in
  non local Contribution for L=           1  read in
    real space projection operators read in
    PAW grid and wavefunctions read in
 
   number of l-projection  operators is LMAX  =           4
   number of lm-projection operators is LMMAX =           8
 
 Optimization of the real space projectors (new method)

 maximal supplied QI-value         = 25.13
 optimisation between [QCUT,QGAM] = [ 10.05, 20.36] = [ 28.30,116.06] Ry 
 Optimized for a Real-space Cutoff    1.30 Angstroem

   l    n(q)    QCUT    max X(q) W(low)/X(q) W(high)/X(q)  e(spline) 
   0      8    10.053     5.578    0.40E-04    0.40E-04    0.54E-07
   0      8    10.053    68.427    0.49E-03    0.71E-03    0.18E-06
   1      7    10.053     2.787    0.79E-04    0.12E-03    0.94E-07
   1      7    10.053     4.374    0.25E-03    0.19E-03    0.21E-06
  PAW C                                 :
 energy of atom  1       EATOM= -146.6877
 kinetic energy error for atom=    0.0289 (will be added to EATOM!!)
 
 
 POSCAR: supercell                               
  positions in direct lattice
  No initial velocities read in
 exchange correlation table for  LEXCH =        2
   RHO(1)=    0.500       N(1)  =     2000
   RHO(2)=  100.500       N(2)  =     4000

 VTST: version 3.1, (03/28/14)

 CHAIN: initializing optimizer
 
 OPT: Using VASP Dynamics algorithm
 CHAIN: Read ICHAIN            0
 
 POSCAR: supercell                               
  positions in direct lattice
  No initial velocities read in
 


--------------------------------------------------------------------------------------------------------


 ion  position               nearest neighbor table
   1  0.000  0.000  0.500-  26 1.42  49 1.42  30 1.42
   2  0.200  0.000  0.500-  27 1.42  45 1.42  26 1.42
   3  0.400  0.000  0.500-  27 1.42  28 1.42  46 1.42
   4  0.600  0.000  0.500-  29 1.42  47 1.42  28 1.42
   5  0.800  0.000  0.500-  29 1.42  30 1.42  48 1.42
   6  0.000  0.200  0.500-  34 1.42  30 1.42  31 1.42
   7  0.200  0.200  0.500-  31 1.42  26 1.42
   8  0.400  0.200  0.500-  27 1.42  32 1.42
   9  0.600  0.200  0.500-  32 1.42  28 1.42  33 1.42
  10  0.800  0.200  0.500-  33 1.42  29 1.42  34 1.42
  11  0.000  0.400  0.500-  34 1.42  35 1.42  39 1.42
  12  0.200  0.400  0.500-  31 1.42  36 1.42  35 1.42
  13  0.400  0.400  0.500-  36 1.42  37 1.42
  14  0.600  0.400  0.500-  32 1.42  38 1.42  37 1.42
  15  0.800  0.400  0.500-  38 1.42  33 1.42  39 1.42
  16  0.000  0.600  0.500-  44 1.42  39 1.42  40 1.42
  17  0.200  0.600  0.500-  40 1.42  35 1.42  41 1.42
  18  0.400  0.600  0.500-  41 1.42  36 1.42  42 1.42
  19  0.600  0.600  0.500-  42 1.42  37 1.42  43 1.42
  20  0.800  0.600  0.500-  43 1.42  38 1.42  44 1.42
  21  0.000  0.800  0.500-  44 1.42  45 1.42  49 1.42
  22  0.200  0.800  0.500-  40 1.42  46 1.42  45 1.42
  23  0.400  0.800  0.500-  46 1.42  41 1.42  47 1.42
  24  0.600  0.800  0.500-  42 1.42  48 1.42  47 1.42
  25  0.800  0.800  0.500-  48 1.42  43 1.42  49 1.42
  26  0.133  0.067  0.500-   1 1.42   7 1.42   2 1.42
  27  0.333  0.067  0.500-   3 1.42   2 1.42   8 1.42
  28  0.533  0.067  0.500-   3 1.42   9 1.42   4 1.42
  29  0.733  0.067  0.500-   5 1.42   4 1.42  10 1.42
  30  0.933  0.067  0.500-   5 1.42   6 1.42   1 1.42
  31  0.133  0.267  0.500-   7 1.42  12 1.42   6 1.42
  32  0.533  0.267  0.500-   9 1.42  14 1.42   8 1.42
  33  0.733  0.267  0.500-  10 1.42  15 1.42   9 1.42
  34  0.933  0.267  0.500-   6 1.42  11 1.42  10 1.42
  35  0.133  0.467  0.500-  11 1.42  17 1.42  12 1.42
  36  0.333  0.467  0.500-  13 1.42  12 1.42  18 1.42
  37  0.533  0.467  0.500-  13 1.42  19 1.42  14 1.42
  38  0.733  0.467  0.500-  15 1.42  14 1.42  20 1.42
  39  0.933  0.467  0.500-  15 1.42  16 1.42  11 1.42
  40  0.133  0.667  0.500-  17 1.42  22 1.42  16 1.42
  41  0.333  0.667  0.500-  18 1.42  23 1.42  17 1.42
  42  0.533  0.667  0.500-  19 1.42  24 1.42  18 1.42
  43  0.733  0.667  0.500-  20 1.42  25 1.42  19 1.42
  44  0.933  0.667  0.500-  16 1.42  21 1.42  20 1.42
  45  0.133  0.867  0.500-   2 1.42  21 1.42  22 1.42
  46  0.333  0.867  0.500-  23 1.42  22 1.42   3 1.42
  47  0.533  0.867  0.500-   4 1.42  23 1.42  24 1.42
  48  0.733  0.867  0.500-  25 1.42  24 1.42   5 1.42
  49  0.933  0.867  0.500-   1 1.42  25 1.42  21 1.42
 
  LATTYP: Found a hexagonal cell.
 ALAT       =    12.3000000000
 C/A-ratio  =     0.8130081301
  
  Lattice vectors:
  
 A1 = (  12.3000000000,   0.0000000000,   0.0000000000)
 A2 = (  -6.1500000000,  10.6521124665,   0.0000000000)
 A3 = (   0.0000000000,   0.0000000000,  10.0000000000)


Analysis of symmetry for initial positions (statically):
=====================================================================
 Subroutine PRICEL returns:
 Original cell was already a primitive cell.
 

 Routine SETGRP: Setting up the symmetry group for a 
 hexagonal supercell.


 Subroutine GETGRP returns: Found 12 space group operations
 (whereof  2 operations were pure point group operations)
 out of a pool of 24 trial point group operations.


The static configuration has the point symmetry C_1h.
 The point group associated with its full space group is D_3h.


Analysis of symmetry for dynamics (positions and initial velocities):
=====================================================================
 Subroutine PRICEL returns:
 Original cell was already a primitive cell.
 

 Routine SETGRP: Setting up the symmetry group for a 
 hexagonal supercell.


 Subroutine GETGRP returns: Found 12 space group operations
 (whereof  2 operations were pure point group operations)
 out of a pool of 24 trial point group operations.


The dynamic configuration has the point symmetry C_1h.
 The point group associated with its full space group is D_3h.


 Subroutine INISYM returns: Found 12 space group operations
 (whereof  2 operations are pure point group operations),
 and found     1 'primitive' translations

 
 
 KPOINTS: Graphene M-G-K                          
  interpolating k-points between supplied coordinates
  k-points in reciprocal lattice
Space group operators:
 irot       det(A)        alpha          n_x          n_y          n_z        tau_x        tau_y        tau_z
    1     1.000000     0.000000     1.000000     0.000000     0.000000     0.000000     0.000000     0.000000
    2    -1.000000   180.000000     0.000000     0.000000     1.000000     0.000000     0.000000     0.000000
    3    -1.000000    60.000000     0.000000     0.000000    -1.000000     0.400000     0.600000     0.000000
    4     1.000000   120.000000     0.000000     0.000000    -1.000000     0.600000     0.200000     0.000000
    5     1.000000   120.000000     0.000000     0.000000     1.000000     0.400000     0.600000     0.000000
    6    -1.000000    60.000000     0.000000     0.000000     1.000000     0.600000     0.200000     0.000000
    7    -1.000000   180.000000     1.000000     0.000000     0.000000     0.400000     0.000000     0.000000
    8     1.000000   180.000000     0.866025    -0.500000     0.000000     0.600000     0.600000     0.000000
    9    -1.000000   180.000000     0.500000    -0.866025     0.000000     0.000000     0.200000     0.000000
   10     1.000000   180.000000     0.000000     1.000000     0.000000     0.400000     0.000000     0.000000
   11    -1.000000   180.000000    -0.500000    -0.866025     0.000000     0.600000     0.600000     0.000000
   12     1.000000   180.000000     0.866025     0.500000     0.000000     0.000000     0.200000     0.000000


--------------------------------------------------------------------------------------------------------




 Dimension of arrays:
   k-points           NKPTS =    202   k-points in BZ     NKDIM =    202   number of bands    NBANDS=    124
   number of dos      NEDOS =    301   number of ions     NIONS =     49
   non local maximal  LDIM  =      4   non local SUM 2l+1 LMDIM =      8
   total plane-waves  NPLWV = 180000
   max r-space proj   IRMAX =   1318   max aug-charges    IRDMAX=   1821
   dimension x,y,z NGX =    60 NGY =   60 NGZ =   50
   dimension x,y,z NGXF=   120 NGYF=  120 NGZF=  100
   support grid    NGXF=   120 NGYF=  120 NGZF=  100
   ions per type =              49
   NGX,Y,Z   is equivalent  to a cutoff of   8.11,  8.11,  8.31 a.u.
   NGXF,Y,Z  is equivalent  to a cutoff of  16.22, 16.22, 16.62 a.u.

 SYSTEM =  vasp                                    
 POSCAR =  supercell                               

 Startparameter for this run:
   NWRITE =      2    write-flag & timer
   PREC   = normal    normal or accurate (medium, high low for compatibility)
   ISTART =      0    job   : 0-new  1-cont  2-samecut
   ICHARG =     11    charge: 1-file 2-atom 10-const
   ISPIN  =      1    spin polarized calculation?
   LNONCOLLINEAR =      F non collinear calculations
   LSORBIT =      F    spin-orbit coupling
   INIWAV =      1    electr: 0-lowe 1-rand  2-diag
   LASPH  =      F    aspherical Exc in radial PAW
   METAGGA=      F    non-selfconsistent MetaGGA calc.

 Electronic Relaxation 1
   ENCUT  =  400.0 eV  29.40 Ry    5.42 a.u.  20.06 20.06 16.31*2*pi/ulx,y,z
   ENINI  =  400.0     initial cutoff
   ENAUG  =  644.9 eV  augmentation charge cutoff
   NELM   =    200;   NELMIN=  2; NELMDL=  0     # of ELM steps 
   EDIFF  = 0.1E-05   stopping-criterion for ELM
   LREAL  =      T    real-space projection
   NLSPLINE    = F    spline interpolate recip. space projectors
   LCOMPAT=      F    compatible to vasp.4.4
   GGA_COMPAT  = T    GGA compatible to vasp.4.4-vasp.4.6
   LMAXPAW     = -100 max onsite density
   LMAXMIX     =    2 max onsite mixed and CHGCAR
   VOSKOWN=      0    Vosko Wilk Nusair interpolation
   ROPT   =   -0.00050
 Ionic relaxation
   EDIFFG = 0.1E-04   stopping-criterion for IOM
   NSW    =      0    number of steps for IOM
   NBLOCK =      1;   KBLOCK =      1    inner block; outer block 
   IBRION =     -1    ionic relax: 0-MD 1-quasi-New 2-CG
   NFREE  =      0    steps in history (QN), initial steepest desc. (CG)
   ISIF   =      2    stress and relaxation
   IWAVPR =     10    prediction:  0-non 1-charg 2-wave 3-comb
   ISYM   =      2    0-nonsym 1-usesym 2-fastsym
   LCORR  =      T    Harris-Foulkes like correction to forces

   POTIM  = 0.5000    time-step for ionic-motion
   TEIN   =    0.0    initial temperature
   TEBEG  =    0.0;   TEEND  =   0.0 temperature during run
   SMASS  =  -3.00    Nose mass-parameter (am)
   estimated Nose-frequenzy (Omega)   =  0.10E-29 period in steps =****** mass=  -0.346E-26a.u.
   SCALEE = 1.0000    scale energy and forces
   NPACO  =    256;   APACO  = 16.0  distance and # of slots for P.C.
   PSTRESS=    0.0 pullay stress

  Mass of Ions in am
   POMASS =  12.01
  Ionic Valenz
   ZVAL   =   4.00
  Atomic Wigner-Seitz radii
   RWIGS  =  -1.00
  virtual crystal weights 
   VCA    =   1.00
   NELECT =     196.0000    total number of electrons
   NUPDOWN=      -1.0000    fix difference up-down

 DOS related values:
   EMIN   =  10.00;   EMAX   =-10.00  energy-range for DOS
   EFERMI =   0.00
   ISMEAR =    -1;   SIGMA  =   0.02  broadening in eV -4-tet -1-fermi 0-gaus

 Electronic relaxation 2 (details)
   IALGO  =     68    algorithm
   LDIAG  =      T    sub-space diagonalisation (order eigenvalues)
   LSUBROT=      F    optimize rotation matrix (better conditioning)
   TURBO    =      0    0=normal 1=particle mesh
   IRESTART =      0    0=no restart 2=restart with 2 vectors
   NREBOOT  =      0    no. of reboots
   NMIN     =      0    reboot dimension
   EREF     =   0.00    reference energy to select bands
   IMIX   =      4    mixing-type and parameters
     AMIX     =   0.40;   BMIX     =  1.00
     AMIX_MAG =   1.60;   BMIX_MAG =  1.00
     AMIN     =   0.10
     WC   =   100.;   INIMIX=   1;  MIXPRE=   1;  MAXMIX= -45

 Intra band minimization:
   WEIMIN = 0.0000     energy-eigenvalue tresh-hold
   EBREAK =  0.20E-08  absolut break condition
   DEPER  =   0.30     relativ break condition  

   TIME   =   0.40     timestep for ELM

  volume/ion in A,a.u.               =      26.74       180.44
  Fermi-wavevector in a.u.,A,eV,Ry     =   0.869054  1.642273 10.275857  0.755254
  Thomas-Fermi vector in A             =   1.987821
 
 Write flags
   LWAVE        =      T    write WAVECAR
   LDOWNSAMPLE  =      F    k-point downsampling of WAVECAR
   LCHARG       =      F    write CHGCAR
   LVTOT        =      F    write LOCPOT, total local potential
   LVHAR        =      F    write LOCPOT, Hartree potential only
   LELF         =      F    write electronic localiz. function (ELF)
   LORBIT       =      0    0 simple, 1 ext, 2 COOP (PROOUT), +10 PAW based schemes


 Dipole corrections
   LMONO  =      F    monopole corrections only (constant potential shift)
   LDIPOL =      F    correct potential (dipole corrections)
   IDIPOL =      0    1-x, 2-y, 3-z, 4-all directions 
   EPSILON=  1.0000000 bulk dielectric constant

 Exchange correlation treatment:
   GGA     =    --    GGA type
   LEXCH   =     2    internal setting for exchange type
   VOSKOWN=      0    Vosko Wilk Nusair interpolation
   LHFCALC =     F    Hartree Fock is set to
   LHFONE  =     F    Hartree Fock one center treatment
   AEXX    =    0.0000 exact exchange contribution

 Linear response parameters
   LEPSILON=     F    determine dielectric tensor
   LRPA    =     F    only Hartree local field effects (RPA)
   LNABLA  =     F    use nabla operator in PAW spheres
   LVEL    =     F    velocity operator in full k-point grid
   LINTERFAST=   F  fast interpolation
   KINTER  =     0    interpolate to denser k-point grid
   CSHIFT  =0.1000    complex shift for real part using Kramers Kronig
   OMEGAMAX=  -1.0    maximum frequency
   DEG_THRESHOLD= 0.2000000E-02 threshold for treating states as degnerate
   RTIME   =   -0.100 relaxation time in fs
  (WPLASMAI=    0.000 imaginary part of plasma frequency in eV, 0.658/RTIME)
   DFIELD  = 0.0000000 0.0000000 0.0000000 field for delta impulse in time
 
 Orbital magnetization related:
   ORBITALMAG=     F  switch on orbital magnetization
   LCHIMAG   =     F  perturbation theory with respect to B field
   DQ        =  0.001000  dq finite difference perturbation B field
   LLRAUG    =     F  two centre corrections for induced B field



--------------------------------------------------------------------------------------------------------


 Static calculation
 charge density and potential remain constant during run
 non-spin polarized calculation
 RMM-DIIS sequential band-by-band and
  variant of blocked Davidson during initial phase
 perform sub-space diagonalisation
    before iterative eigenvector-optimisation
 no mixing
 using additional bands           26
 real space projection scheme for non local part
 calculate Harris-corrections to forces 
   (improved forces if not selfconsistent)
 use of overlap-Matrix (Vanderbilt PP)
 Fermi-smearing in eV        SIGMA  =   0.02


--------------------------------------------------------------------------------------------------------


  energy-cutoff  :      400.00
  volume of cell :     1310.21
      direct lattice vectors                 reciprocal lattice vectors
    12.300000000  0.000000000  0.000000000     0.081300813  0.046939046  0.000000000
    -6.150000000 10.652112467  0.000000000     0.000000000  0.093878093  0.000000000
     0.000000000  0.000000000 10.000000000     0.000000000  0.000000000  0.100000000

  length of vectors
    12.300000000 12.300000000 10.000000000     0.093878093  0.093878093  0.100000000


 
 k-points in units of 2pi/SCALE and weight: Graphene M-G-K                          
   0.00000000  0.23469523  0.00000000       0.005
   0.00000000  0.23234828  0.00000000       0.005
   0.00000000  0.23000133  0.00000000       0.005
   0.00000000  0.22765437  0.00000000       0.005
   0.00000000  0.22530742  0.00000000       0.005
   0.00000000  0.22296047  0.00000000       0.005
   0.00000000  0.22061352  0.00000000       0.005
   0.00000000  0.21826657  0.00000000       0.005
   0.00000000  0.21591961  0.00000000       0.005
   0.00000000  0.21357266  0.00000000       0.005
   0.00000000  0.21122571  0.00000000       0.005
   0.00000000  0.20887876  0.00000000       0.005
   0.00000000  0.20653180  0.00000000       0.005
   0.00000000  0.20418485  0.00000000       0.005
   0.00000000  0.20183790  0.00000000       0.005
   0.00000000  0.19949095  0.00000000       0.005
   0.00000000  0.19714399  0.00000000       0.005
   0.00000000  0.19479704  0.00000000       0.005
   0.00000000  0.19245009  0.00000000       0.005
   0.00000000  0.19010314  0.00000000       0.005
   0.00000000  0.18775619  0.00000000       0.005
   0.00000000  0.18540923  0.00000000       0.005
   0.00000000  0.18306228  0.00000000       0.005
   0.00000000  0.18071533  0.00000000       0.005
   0.00000000  0.17836838  0.00000000       0.005
   0.00000000  0.17602142  0.00000000       0.005
   0.00000000  0.17367447  0.00000000       0.005
   0.00000000  0.17132752  0.00000000       0.005
   0.00000000  0.16898057  0.00000000       0.005
   0.00000000  0.16663361  0.00000000       0.005
   0.00000000  0.16428666  0.00000000       0.005
   0.00000000  0.16193971  0.00000000       0.005
   0.00000000  0.15959276  0.00000000       0.005
   0.00000000  0.15724581  0.00000000       0.005
   0.00000000  0.15489885  0.00000000       0.005
   0.00000000  0.15255190  0.00000000       0.005
   0.00000000  0.15020495  0.00000000       0.005
   0.00000000  0.14785800  0.00000000       0.005
   0.00000000  0.14551104  0.00000000       0.005
   0.00000000  0.14316409  0.00000000       0.005
   0.00000000  0.14081714  0.00000000       0.005
   0.00000000  0.13847019  0.00000000       0.005
   0.00000000  0.13612323  0.00000000       0.005
   0.00000000  0.13377628  0.00000000       0.005
   0.00000000  0.13142933  0.00000000       0.005
   0.00000000  0.12908238  0.00000000       0.005
   0.00000000  0.12673542  0.00000000       0.005
   0.00000000  0.12438847  0.00000000       0.005
   0.00000000  0.12204152  0.00000000       0.005
   0.00000000  0.11969457  0.00000000       0.005
   0.00000000  0.11734762  0.00000000       0.005
   0.00000000  0.11500066  0.00000000       0.005
   0.00000000  0.11265371  0.00000000       0.005
   0.00000000  0.11030676  0.00000000       0.005
   0.00000000  0.10795981  0.00000000       0.005
   0.00000000  0.10561285  0.00000000       0.005
   0.00000000  0.10326590  0.00000000       0.005
   0.00000000  0.10091895  0.00000000       0.005
   0.00000000  0.09857200  0.00000000       0.005
   0.00000000  0.09622504  0.00000000       0.005
   0.00000000  0.09387809  0.00000000       0.005
   0.00000000  0.09153114  0.00000000       0.005
   0.00000000  0.08918419  0.00000000       0.005
   0.00000000  0.08683724  0.00000000       0.005
   0.00000000  0.08449028  0.00000000       0.005
   0.00000000  0.08214333  0.00000000       0.005
   0.00000000  0.07979638  0.00000000       0.005
   0.00000000  0.07744943  0.00000000       0.005
   0.00000000  0.07510247  0.00000000       0.005
   0.00000000  0.07275552  0.00000000       0.005
   0.00000000  0.07040857  0.00000000       0.005
   0.00000000  0.06806162  0.00000000       0.005
   0.00000000  0.06571466  0.00000000       0.005
   0.00000000  0.06336771  0.00000000       0.005
   0.00000000  0.06102076  0.00000000       0.005
   0.00000000  0.05867381  0.00000000       0.005
   0.00000000  0.05632686  0.00000000       0.005
   0.00000000  0.05397990  0.00000000       0.005
   0.00000000  0.05163295  0.00000000       0.005
   0.00000000  0.04928600  0.00000000       0.005
   0.00000000  0.04693905  0.00000000       0.005
   0.00000000  0.04459209  0.00000000       0.005
   0.00000000  0.04224514  0.00000000       0.005
   0.00000000  0.03989819  0.00000000       0.005
   0.00000000  0.03755124  0.00000000       0.005
   0.00000000  0.03520428  0.00000000       0.005
   0.00000000  0.03285733  0.00000000       0.005
   0.00000000  0.03051038  0.00000000       0.005
   0.00000000  0.02816343  0.00000000       0.005
   0.00000000  0.02581648  0.00000000       0.005
   0.00000000  0.02346952  0.00000000       0.005
   0.00000000  0.02112257  0.00000000       0.005
   0.00000000  0.01877562  0.00000000       0.005
   0.00000000  0.01642867  0.00000000       0.005
   0.00000000  0.01408171  0.00000000       0.005
   0.00000000  0.01173476  0.00000000       0.005
   0.00000000  0.00938781  0.00000000       0.005
   0.00000000  0.00704086  0.00000000       0.005
   0.00000000  0.00469390  0.00000000       0.005
   0.00000000  0.00234695  0.00000000       0.005
   0.00000000  0.00000000  0.00000000       0.005
   0.00000000  0.00000000  0.00000000       0.005
   0.00135501  0.00234695  0.00000000       0.005
   0.00271003  0.00469390  0.00000000       0.005
   0.00406504  0.00704086  0.00000000       0.005
   0.00542005  0.00938781  0.00000000       0.005
   0.00677507  0.01173476  0.00000000       0.005
   0.00813008  0.01408171  0.00000000       0.005
   0.00948509  0.01642867  0.00000000       0.005
   0.01084011  0.01877562  0.00000000       0.005
   0.01219512  0.02112257  0.00000000       0.005
   0.01355014  0.02346952  0.00000000       0.005
   0.01490515  0.02581648  0.00000000       0.005
   0.01626016  0.02816343  0.00000000       0.005
   0.01761518  0.03051038  0.00000000       0.005
   0.01897019  0.03285733  0.00000000       0.005
   0.02032520  0.03520428  0.00000000       0.005
   0.02168022  0.03755124  0.00000000       0.005
   0.02303523  0.03989819  0.00000000       0.005
   0.02439024  0.04224514  0.00000000       0.005
   0.02574526  0.04459209  0.00000000       0.005
   0.02710027  0.04693905  0.00000000       0.005
   0.02845528  0.04928600  0.00000000       0.005
   0.02981030  0.05163295  0.00000000       0.005
   0.03116531  0.05397990  0.00000000       0.005
   0.03252033  0.05632686  0.00000000       0.005
   0.03387534  0.05867381  0.00000000       0.005
   0.03523035  0.06102076  0.00000000       0.005
   0.03658537  0.06336771  0.00000000       0.005
   0.03794038  0.06571466  0.00000000       0.005
   0.03929539  0.06806162  0.00000000       0.005
   0.04065041  0.07040857  0.00000000       0.005
   0.04200542  0.07275552  0.00000000       0.005
   0.04336043  0.07510247  0.00000000       0.005
   0.04471545  0.07744943  0.00000000       0.005
   0.04607046  0.07979638  0.00000000       0.005
   0.04742547  0.08214333  0.00000000       0.005
   0.04878049  0.08449028  0.00000000       0.005
   0.05013550  0.08683724  0.00000000       0.005
   0.05149051  0.08918419  0.00000000       0.005
   0.05284553  0.09153114  0.00000000       0.005
   0.05420054  0.09387809  0.00000000       0.005
   0.05555556  0.09622504  0.00000000       0.005
   0.05691057  0.09857200  0.00000000       0.005
   0.05826558  0.10091895  0.00000000       0.005
   0.05962060  0.10326590  0.00000000       0.005
   0.06097561  0.10561285  0.00000000       0.005
   0.06233062  0.10795981  0.00000000       0.005
   0.06368564  0.11030676  0.00000000       0.005
   0.06504065  0.11265371  0.00000000       0.005
   0.06639566  0.11500066  0.00000000       0.005
   0.06775068  0.11734762  0.00000000       0.005
   0.06910569  0.11969457  0.00000000       0.005
   0.07046070  0.12204152  0.00000000       0.005
   0.07181572  0.12438847  0.00000000       0.005
   0.07317073  0.12673542  0.00000000       0.005
   0.07452575  0.12908238  0.00000000       0.005
   0.07588076  0.13142933  0.00000000       0.005
   0.07723577  0.13377628  0.00000000       0.005
   0.07859079  0.13612323  0.00000000       0.005
   0.07994580  0.13847019  0.00000000       0.005
   0.08130081  0.14081714  0.00000000       0.005
   0.08265583  0.14316409  0.00000000       0.005
   0.08401084  0.14551104  0.00000000       0.005
   0.08536585  0.14785800  0.00000000       0.005
   0.08672087  0.15020495  0.00000000       0.005
   0.08807588  0.15255190  0.00000000       0.005
   0.08943089  0.15489885  0.00000000       0.005
   0.09078591  0.15724581  0.00000000       0.005
   0.09214092  0.15959276  0.00000000       0.005
   0.09349593  0.16193971  0.00000000       0.005
   0.09485095  0.16428666  0.00000000       0.005
   0.09620596  0.16663361  0.00000000       0.005
   0.09756098  0.16898057  0.00000000       0.005
   0.09891599  0.17132752  0.00000000       0.005
   0.10027100  0.17367447  0.00000000       0.005
   0.10162602  0.17602142  0.00000000       0.005
   0.10298103  0.17836838  0.00000000       0.005
   0.10433604  0.18071533  0.00000000       0.005
   0.10569106  0.18306228  0.00000000       0.005
   0.10704607  0.18540923  0.00000000       0.005
   0.10840108  0.18775619  0.00000000       0.005
   0.10975610  0.19010314  0.00000000       0.005
   0.11111111  0.19245009  0.00000000       0.005
   0.11246612  0.19479704  0.00000000       0.005
   0.11382114  0.19714399  0.00000000       0.005
   0.11517615  0.19949095  0.00000000       0.005
   0.11653117  0.20183790  0.00000000       0.005
   0.11788618  0.20418485  0.00000000       0.005
   0.11924119  0.20653180  0.00000000       0.005
   0.12059621  0.20887876  0.00000000       0.005
   0.12195122  0.21122571  0.00000000       0.005
   0.12330623  0.21357266  0.00000000       0.005
   0.12466125  0.21591961  0.00000000       0.005
   0.12601626  0.21826657  0.00000000       0.005
   0.12737127  0.22061352  0.00000000       0.005
   0.12872629  0.22296047  0.00000000       0.005
   0.13008130  0.22530742  0.00000000       0.005
   0.13143631  0.22765437  0.00000000       0.005
   0.13279133  0.23000133  0.00000000       0.005
   0.13414634  0.23234828  0.00000000       0.005
   0.13550136  0.23469523  0.00000000       0.005
 
 k-points in reciprocal lattice and weights: Graphene M-G-K                          
   0.00000000  2.50000000  0.00000000       0.005
   0.00000000  2.47500000  0.00000000       0.005
   0.00000000  2.45000000  0.00000000       0.005
   0.00000000  2.42500000  0.00000000       0.005
   0.00000000  2.40000000  0.00000000       0.005
   0.00000000  2.37500000  0.00000000       0.005
   0.00000000  2.35000000  0.00000000       0.005
   0.00000000  2.32500000  0.00000000       0.005
   0.00000000  2.30000000  0.00000000       0.005
   0.00000000  2.27500000  0.00000000       0.005
   0.00000000  2.25000000  0.00000000       0.005
   0.00000000  2.22500000  0.00000000       0.005
   0.00000000  2.20000000  0.00000000       0.005
   0.00000000  2.17500000  0.00000000       0.005
   0.00000000  2.15000000  0.00000000       0.005
   0.00000000  2.12500000  0.00000000       0.005
   0.00000000  2.10000000  0.00000000       0.005
   0.00000000  2.07500000  0.00000000       0.005
   0.00000000  2.05000000  0.00000000       0.005
   0.00000000  2.02500000  0.00000000       0.005
   0.00000000  2.00000000  0.00000000       0.005
   0.00000000  1.97500000  0.00000000       0.005
   0.00000000  1.95000000  0.00000000       0.005
   0.00000000  1.92500000  0.00000000       0.005
   0.00000000  1.90000000  0.00000000       0.005
   0.00000000  1.87500000  0.00000000       0.005
   0.00000000  1.85000000  0.00000000       0.005
   0.00000000  1.82500000  0.00000000       0.005
   0.00000000  1.80000000  0.00000000       0.005
   0.00000000  1.77500000  0.00000000       0.005
   0.00000000  1.75000000  0.00000000       0.005
   0.00000000  1.72500000  0.00000000       0.005
   0.00000000  1.70000000  0.00000000       0.005
   0.00000000  1.67500000  0.00000000       0.005
   0.00000000  1.65000000  0.00000000       0.005
   0.00000000  1.62500000  0.00000000       0.005
   0.00000000  1.60000000  0.00000000       0.005
   0.00000000  1.57500000  0.00000000       0.005
   0.00000000  1.55000000  0.00000000       0.005
   0.00000000  1.52500000  0.00000000       0.005
   0.00000000  1.50000000  0.00000000       0.005
   0.00000000  1.47500000  0.00000000       0.005
   0.00000000  1.45000000  0.00000000       0.005
   0.00000000  1.42500000  0.00000000       0.005
   0.00000000  1.40000000  0.00000000       0.005
   0.00000000  1.37500000  0.00000000       0.005
   0.00000000  1.35000000  0.00000000       0.005
   0.00000000  1.32500000  0.00000000       0.005
   0.00000000  1.30000000  0.00000000       0.005
   0.00000000  1.27500000  0.00000000       0.005
   0.00000000  1.25000000  0.00000000       0.005
   0.00000000  1.22500000  0.00000000       0.005
   0.00000000  1.20000000  0.00000000       0.005
   0.00000000  1.17500000  0.00000000       0.005
   0.00000000  1.15000000  0.00000000       0.005
   0.00000000  1.12500000  0.00000000       0.005
   0.00000000  1.10000000  0.00000000       0.005
   0.00000000  1.07500000  0.00000000       0.005
   0.00000000  1.05000000  0.00000000       0.005
   0.00000000  1.02500000  0.00000000       0.005
   0.00000000  1.00000000  0.00000000       0.005
   0.00000000  0.97500000  0.00000000       0.005
   0.00000000  0.95000000  0.00000000       0.005
   0.00000000  0.92500000  0.00000000       0.005
   0.00000000  0.90000000  0.00000000       0.005
   0.00000000  0.87500000  0.00000000       0.005
   0.00000000  0.85000000  0.00000000       0.005
   0.00000000  0.82500000  0.00000000       0.005
   0.00000000  0.80000000  0.00000000       0.005
   0.00000000  0.77500000  0.00000000       0.005
   0.00000000  0.75000000  0.00000000       0.005
   0.00000000  0.72500000  0.00000000       0.005
   0.00000000  0.70000000  0.00000000       0.005
   0.00000000  0.67500000  0.00000000       0.005
   0.00000000  0.65000000  0.00000000       0.005
   0.00000000  0.62500000  0.00000000       0.005
   0.00000000  0.60000000  0.00000000       0.005
   0.00000000  0.57500000  0.00000000       0.005
   0.00000000  0.55000000  0.00000000       0.005
   0.00000000  0.52500000  0.00000000       0.005
   0.00000000  0.50000000  0.00000000       0.005
   0.00000000  0.47500000  0.00000000       0.005
   0.00000000  0.45000000  0.00000000       0.005
   0.00000000  0.42500000  0.00000000       0.005
   0.00000000  0.40000000  0.00000000       0.005
   0.00000000  0.37500000  0.00000000       0.005
   0.00000000  0.35000000  0.00000000       0.005
   0.00000000  0.32500000  0.00000000       0.005
   0.00000000  0.30000000  0.00000000       0.005
   0.00000000  0.27500000  0.00000000       0.005
   0.00000000  0.25000000  0.00000000       0.005
   0.00000000  0.22500000  0.00000000       0.005
   0.00000000  0.20000000  0.00000000       0.005
   0.00000000  0.17500000  0.00000000       0.005
   0.00000000  0.15000000  0.00000000       0.005
   0.00000000  0.12500000  0.00000000       0.005
   0.00000000  0.10000000  0.00000000       0.005
   0.00000000  0.07500000  0.00000000       0.005
   0.00000000  0.05000000  0.00000000       0.005
   0.00000000  0.02500000  0.00000000       0.005
   0.00000000  0.00000000  0.00000000       0.005
   0.00000000  0.00000000  0.00000000       0.005
   0.01666667  0.01666667  0.00000000       0.005
   0.03333333  0.03333333  0.00000000       0.005
   0.05000000  0.05000000  0.00000000       0.005
   0.06666667  0.06666667  0.00000000       0.005
   0.08333333  0.08333333  0.00000000       0.005
   0.10000000  0.10000000  0.00000000       0.005
   0.11666667  0.11666667  0.00000000       0.005
   0.13333333  0.13333333  0.00000000       0.005
   0.15000000  0.15000000  0.00000000       0.005
   0.16666667  0.16666667  0.00000000       0.005
   0.18333333  0.18333333  0.00000000       0.005
   0.20000000  0.20000000  0.00000000       0.005
   0.21666667  0.21666667  0.00000000       0.005
   0.23333333  0.23333333  0.00000000       0.005
   0.25000000  0.25000000  0.00000000       0.005
   0.26666667  0.26666667  0.00000000       0.005
   0.28333333  0.28333333  0.00000000       0.005
   0.30000000  0.30000000  0.00000000       0.005
   0.31666667  0.31666667  0.00000000       0.005
   0.33333333  0.33333333  0.00000000       0.005
   0.35000000  0.35000000  0.00000000       0.005
   0.36666667  0.36666667  0.00000000       0.005
   0.38333333  0.38333333  0.00000000       0.005
   0.40000000  0.40000000  0.00000000       0.005
   0.41666667  0.41666667  0.00000000       0.005
   0.43333333  0.43333333  0.00000000       0.005
   0.45000000  0.45000000  0.00000000       0.005
   0.46666667  0.46666667  0.00000000       0.005
   0.48333333  0.48333333  0.00000000       0.005
   0.50000000  0.50000000  0.00000000       0.005
   0.51666667  0.51666667  0.00000000       0.005
   0.53333333  0.53333333  0.00000000       0.005
   0.55000000  0.55000000  0.00000000       0.005
   0.56666667  0.56666667  0.00000000       0.005
   0.58333333  0.58333333  0.00000000       0.005
   0.60000000  0.60000000  0.00000000       0.005
   0.61666667  0.61666667  0.00000000       0.005
   0.63333333  0.63333333  0.00000000       0.005
   0.65000000  0.65000000  0.00000000       0.005
   0.66666667  0.66666667  0.00000000       0.005
   0.68333333  0.68333333  0.00000000       0.005
   0.70000000  0.70000000  0.00000000       0.005
   0.71666667  0.71666667  0.00000000       0.005
   0.73333333  0.73333333  0.00000000       0.005
   0.75000000  0.75000000  0.00000000       0.005
   0.76666667  0.76666667  0.00000000       0.005
   0.78333333  0.78333333  0.00000000       0.005
   0.80000000  0.80000000  0.00000000       0.005
   0.81666667  0.81666667  0.00000000       0.005
   0.83333333  0.83333333  0.00000000       0.005
   0.85000000  0.85000000  0.00000000       0.005
   0.86666667  0.86666667  0.00000000       0.005
   0.88333333  0.88333333  0.00000000       0.005
   0.90000000  0.90000000  0.00000000       0.005
   0.91666667  0.91666667  0.00000000       0.005
   0.93333333  0.93333333  0.00000000       0.005
   0.95000000  0.95000000  0.00000000       0.005
   0.96666667  0.96666667  0.00000000       0.005
   0.98333333  0.98333333  0.00000000       0.005
   1.00000000  1.00000000  0.00000000       0.005
   1.01666667  1.01666667  0.00000000       0.005
   1.03333333  1.03333333  0.00000000       0.005
   1.05000000  1.05000000  0.00000000       0.005
   1.06666667  1.06666667  0.00000000       0.005
   1.08333333  1.08333333  0.00000000       0.005
   1.10000000  1.10000000  0.00000000       0.005
   1.11666667  1.11666667  0.00000000       0.005
   1.13333333  1.13333333  0.00000000       0.005
   1.15000000  1.15000000  0.00000000       0.005
   1.16666667  1.16666667  0.00000000       0.005
   1.18333333  1.18333333  0.00000000       0.005
   1.20000000  1.20000000  0.00000000       0.005
   1.21666667  1.21666667  0.00000000       0.005
   1.23333333  1.23333333  0.00000000       0.005
   1.25000000  1.25000000  0.00000000       0.005
   1.26666667  1.26666667  0.00000000       0.005
   1.28333333  1.28333333  0.00000000       0.005
   1.30000000  1.30000000  0.00000000       0.005
   1.31666667  1.31666667  0.00000000       0.005
   1.33333333  1.33333333  0.00000000       0.005
   1.35000000  1.35000000  0.00000000       0.005
   1.36666667  1.36666667  0.00000000       0.005
   1.38333333  1.38333333  0.00000000       0.005
   1.40000000  1.40000000  0.00000000       0.005
   1.41666667  1.41666667  0.00000000       0.005
   1.43333333  1.43333333  0.00000000       0.005
   1.45000000  1.45000000  0.00000000       0.005
   1.46666667  1.46666667  0.00000000       0.005
   1.48333333  1.48333333  0.00000000       0.005
   1.50000000  1.50000000  0.00000000       0.005
   1.51666667  1.51666667  0.00000000       0.005
   1.53333333  1.53333333  0.00000000       0.005
   1.55000000  1.55000000  0.00000000       0.005
   1.56666667  1.56666667  0.00000000       0.005
   1.58333333  1.58333333  0.00000000       0.005
   1.60000000  1.60000000  0.00000000       0.005
   1.61666667  1.61666667  0.00000000       0.005
   1.63333333  1.63333333  0.00000000       0.005
   1.65000000  1.65000000  0.00000000       0.005
   1.66666667  1.66666667  0.00000000       0.005
 
 position of ions in fractional coordinates (direct lattice) 
   0.00000000  0.00000000  0.50000000
   0.20000000  0.00000000  0.50000000
   0.40000000  0.00000000  0.50000000
   0.60000000  0.00000000  0.50000000
   0.80000000  0.00000000  0.50000000
   0.00000000  0.20000000  0.50000000
   0.20000000  0.20000000  0.50000000
   0.40000000  0.20000000  0.50000000
   0.60000000  0.20000000  0.50000000
   0.80000000  0.20000000  0.50000000
   0.00000000  0.40000000  0.50000000
   0.20000000  0.40000000  0.50000000
   0.40000000  0.40000000  0.50000000
   0.60000000  0.40000000  0.50000000
   0.80000000  0.40000000  0.50000000
   0.00000000  0.60000000  0.50000000
   0.20000000  0.60000000  0.50000000
   0.40000000  0.60000000  0.50000000
   0.60000000  0.60000000  0.50000000
   0.80000000  0.60000000  0.50000000
   0.00000000  0.80000000  0.50000000
   0.20000000  0.80000000  0.50000000
   0.40000000  0.80000000  0.50000000
   0.60000000  0.80000000  0.50000000
   0.80000000  0.80000000  0.50000000
   0.13333333  0.06666667  0.50000000
   0.33333333  0.06666667  0.50000000
   0.53333333  0.06666667  0.50000000
   0.73333333  0.06666667  0.50000000
   0.93333333  0.06666667  0.50000000
   0.13333333  0.26666667  0.50000000
   0.53333333  0.26666667  0.50000000
   0.73333333  0.26666667  0.50000000
   0.93333333  0.26666667  0.50000000
   0.13333333  0.46666667  0.50000000
   0.33333333  0.46666667  0.50000000
   0.53333333  0.46666667  0.50000000
   0.73333333  0.46666667  0.50000000
   0.93333333  0.46666667  0.50000000
   0.13333333  0.66666667  0.50000000
   0.33333333  0.66666667  0.50000000
   0.53333333  0.66666667  0.50000000
   0.73333333  0.66666667  0.50000000
   0.93333333  0.66666667  0.50000000
   0.13333333  0.86666667  0.50000000
   0.33333333  0.86666667  0.50000000
   0.53333333  0.86666667  0.50000000
   0.73333333  0.86666667  0.50000000
   0.93333333  0.86666667  0.50000000
 
 position of ions in cartesian coordinates  (Angst):
   0.00000000  0.00000000  5.00000000
   2.46000000  0.00000000  5.00000000
   4.92000000  0.00000000  5.00000000
   7.38000000  0.00000000  5.00000000
   9.84000000  0.00000000  5.00000000
  -1.23000000  2.13042249  5.00000000
   1.23000000  2.13042249  5.00000000
   3.69000000  2.13042249  5.00000000
   6.15000000  2.13042249  5.00000000
   8.61000000  2.13042249  5.00000000
  -2.46000000  4.26084499  5.00000000
   0.00000000  4.26084499  5.00000000
   2.46000000  4.26084499  5.00000000
   4.92000000  4.26084499  5.00000000
   7.38000000  4.26084499  5.00000000
  -3.69000000  6.39126748  5.00000000
  -1.23000000  6.39126748  5.00000000
   1.23000000  6.39126748  5.00000000
   3.69000000  6.39126748  5.00000000
   6.15000000  6.39126748  5.00000000
  -4.92000000  8.52168997  5.00000000
  -2.46000000  8.52168997  5.00000000
   0.00000000  8.52168997  5.00000000
   2.46000000  8.52168997  5.00000000
   4.92000000  8.52168997  5.00000000
   1.23000000  0.71014083  5.00000000
   3.69000000  0.71014083  5.00000000
   6.15000000  0.71014083  5.00000000
   8.61000000  0.71014083  5.00000000
  11.07000000  0.71014083  5.00000000
   0.00000000  2.84056332  5.00000000
   4.92000000  2.84056332  5.00000000
   7.38000000  2.84056332  5.00000000
   9.84000000  2.84056332  5.00000000
  -1.23000000  4.97098582  5.00000000
   1.23000000  4.97098582  5.00000000
   3.69000000  4.97098582  5.00000000
   6.15000000  4.97098582  5.00000000
   8.61000000  4.97098582  5.00000000
  -2.46000000  7.10140831  5.00000000
   0.00000000  7.10140831  5.00000000
   2.46000000  7.10140831  5.00000000
   4.92000000  7.10140831  5.00000000
   7.38000000  7.10140831  5.00000000
  -3.69000000  9.23183080  5.00000000
  -1.23000000  9.23183080  5.00000000
   1.23000000  9.23183080  5.00000000
   3.69000000  9.23183080  5.00000000
   6.15000000  9.23183080  5.00000000
 


--------------------------------------------------------------------------------------------------------


 k-point  1 :   0.0000 2.5000 0.0000  plane waves:   23830
 k-point  2 :   0.0000 2.4750 0.0000  plane waves:   23816
 k-point  3 :   0.0000 2.4500 0.0000  plane waves:   23822
 k-point  4 :   0.0000 2.4250 0.0000  plane waves:   23832
 k-point  5 :   0.0000 2.4000 0.0000  plane waves:   23826
 k-point  6 :   0.0000 2.3750 0.0000  plane waves:   23818
 k-point  7 :   0.0000 2.3500 0.0000  plane waves:   23805
 k-point  8 :   0.0000 2.3250 0.0000  plane waves:   23805
 k-point  9 :   0.0000 2.3000 0.0000  plane waves:   23797
 k-point 10 :   0.0000 2.2750 0.0000  plane waves:   23791
 k-point 11 :   0.0000 2.2500 0.0000  plane waves:   23801
 k-point 12 :   0.0000 2.2250 0.0000  plane waves:   23793
 k-point 13 :   0.0000 2.2000 0.0000  plane waves:   23791
 k-point 14 :   0.0000 2.1750 0.0000  plane waves:   23775
 k-point 15 :   0.0000 2.1500 0.0000  plane waves:   23773
 k-point 16 :   0.0000 2.1250 0.0000  plane waves:   23771
 k-point 17 :   0.0000 2.1000 0.0000  plane waves:   23751
 k-point 18 :   0.0000 2.0750 0.0000  plane waves:   23767
 k-point 19 :   0.0000 2.0500 0.0000  plane waves:   23799
 k-point 20 :   0.0000 2.0250 0.0000  plane waves:   23767
 k-point 21 :   0.0000 2.0000 0.0000  plane waves:   23799
 k-point 22 :   0.0000 1.9750 0.0000  plane waves:   23767
 k-point 23 :   0.0000 1.9500 0.0000  plane waves:   23799
 k-point 24 :   0.0000 1.9250 0.0000  plane waves:   23767
 k-point 25 :   0.0000 1.9000 0.0000  plane waves:   23751
 k-point 26 :   0.0000 1.8750 0.0000  plane waves:   23771
 k-point 27 :   0.0000 1.8500 0.0000  plane waves:   23773
 k-point 28 :   0.0000 1.8250 0.0000  plane waves:   23775
 k-point 29 :   0.0000 1.8000 0.0000  plane waves:   23791
 k-point 30 :   0.0000 1.7750 0.0000  plane waves:   23793
 k-point 31 :   0.0000 1.7500 0.0000  plane waves:   23801
 k-point 32 :   0.0000 1.7250 0.0000  plane waves:   23791
 k-point 33 :   0.0000 1.7000 0.0000  plane waves:   23797
 k-point 34 :   0.0000 1.6750 0.0000  plane waves:   23805
 k-point 35 :   0.0000 1.6500 0.0000  plane waves:   23805
 k-point 36 :   0.0000 1.6250 0.0000  plane waves:   23818
 k-point 37 :   0.0000 1.6000 0.0000  plane waves:   23826
 k-point 38 :   0.0000 1.5750 0.0000  plane waves:   23832
 k-point 39 :   0.0000 1.5500 0.0000  plane waves:   23822
 k-point 40 :   0.0000 1.5250 0.0000  plane waves:   23816
 k-point 41 :   0.0000 1.5000 0.0000  plane waves:   23830
 k-point 42 :   0.0000 1.4750 0.0000  plane waves:   23816
 k-point 43 :   0.0000 1.4500 0.0000  plane waves:   23822
 k-point 44 :   0.0000 1.4250 0.0000  plane waves:   23832
 k-point 45 :   0.0000 1.4000 0.0000  plane waves:   23826
 k-point 46 :   0.0000 1.3750 0.0000  plane waves:   23818
 k-point 47 :   0.0000 1.3500 0.0000  plane waves:   23805
 k-point 48 :   0.0000 1.3250 0.0000  plane waves:   23805
 k-point 49 :   0.0000 1.3000 0.0000  plane waves:   23797
 k-point 50 :   0.0000 1.2750 0.0000  plane waves:   23791
 k-point 51 :   0.0000 1.2500 0.0000  plane waves:   23801
 k-point 52 :   0.0000 1.2250 0.0000  plane waves:   23793
 k-point 53 :   0.0000 1.2000 0.0000  plane waves:   23791
 k-point 54 :   0.0000 1.1750 0.0000  plane waves:   23775
 k-point 55 :   0.0000 1.1500 0.0000  plane waves:   23773
 k-point 56 :   0.0000 1.1250 0.0000  plane waves:   23771
 k-point 57 :   0.0000 1.1000 0.0000  plane waves:   23751
 k-point 58 :   0.0000 1.0750 0.0000  plane waves:   23767
 k-point 59 :   0.0000 1.0500 0.0000  plane waves:   23799
 k-point 60 :   0.0000 1.0250 0.0000  plane waves:   23767
 k-point 61 :   0.0000 1.0000 0.0000  plane waves:   23799
 k-point 62 :   0.0000 0.9750 0.0000  plane waves:   23767
 k-point 63 :   0.0000 0.9500 0.0000  plane waves:   23799
 k-point 64 :   0.0000 0.9250 0.0000  plane waves:   23767
 k-point 65 :   0.0000 0.9000 0.0000  plane waves:   23751
 k-point 66 :   0.0000 0.8750 0.0000  plane waves:   23771
 k-point 67 :   0.0000 0.8500 0.0000  plane waves:   23773
 k-point 68 :   0.0000 0.8250 0.0000  plane waves:   23775
 k-point 69 :   0.0000 0.8000 0.0000  plane waves:   23791
 k-point 70 :   0.0000 0.7750 0.0000  plane waves:   23793
 k-point 71 :   0.0000 0.7500 0.0000  plane waves:   23801
 k-point 72 :   0.0000 0.7250 0.0000  plane waves:   23791
 k-point 73 :   0.0000 0.7000 0.0000  plane waves:   23797
 k-point 74 :   0.0000 0.6750 0.0000  plane waves:   23805
 k-point 75 :   0.0000 0.6500 0.0000  plane waves:   23805
 k-point 76 :   0.0000 0.6250 0.0000  plane waves:   23818
 k-point 77 :   0.0000 0.6000 0.0000  plane waves:   23826
 k-point 78 :   0.0000 0.5750 0.0000  plane waves:   23832
 k-point 79 :   0.0000 0.5500 0.0000  plane waves:   23822
 k-point 80 :   0.0000 0.5250 0.0000  plane waves:   23816
 k-point 81 :   0.0000 0.5000 0.0000  plane waves:   23830
 k-point 82 :   0.0000 0.4750 0.0000  plane waves:   23816
 k-point 83 :   0.0000 0.4500 0.0000  plane waves:   23822
 k-point 84 :   0.0000 0.4250 0.0000  plane waves:   23832
 k-point 85 :   0.0000 0.4000 0.0000  plane waves:   23826
 k-point 86 :   0.0000 0.3750 0.0000  plane waves:   23818
 k-point 87 :   0.0000 0.3500 0.0000  plane waves:   23805
 k-point 88 :   0.0000 0.3250 0.0000  plane waves:   23805
 k-point 89 :   0.0000 0.3000 0.0000  plane waves:   23797
 k-point 90 :   0.0000 0.2750 0.0000  plane waves:   23791
 k-point 91 :   0.0000 0.2500 0.0000  plane waves:   23801
 k-point 92 :   0.0000 0.2250 0.0000  plane waves:   23793
 k-point 93 :   0.0000 0.2000 0.0000  plane waves:   23791
 k-point 94 :   0.0000 0.1750 0.0000  plane waves:   23775
 k-point 95 :   0.0000 0.1500 0.0000  plane waves:   23773
 k-point 96 :   0.0000 0.1250 0.0000  plane waves:   23771
 k-point 97 :   0.0000 0.1000 0.0000  plane waves:   23751
 k-point 98 :   0.0000 0.0750 0.0000  plane waves:   23767
 k-point 99 :   0.0000 0.0500 0.0000  plane waves:   23799
 k-point ** :   0.0000 0.0250 0.0000  plane waves:   23767
 k-point ** :   0.0000 0.0000 0.0000  plane waves:   23799
 k-point ** :   0.0000 0.0000 0.0000  plane waves:   23799
 k-point ** :   0.0167 0.0167 0.0000  plane waves:   23779
 k-point ** :   0.0333 0.0333 0.0000  plane waves:   23786
 k-point ** :   0.0500 0.0500 0.0000  plane waves:   23746
 k-point ** :   0.0667 0.0667 0.0000  plane waves:   23756
 k-point ** :   0.0833 0.0833 0.0000  plane waves:   23766
 k-point ** :   0.1000 0.1000 0.0000  plane waves:   23770
 k-point ** :   0.1167 0.1167 0.0000  plane waves:   23760
 k-point ** :   0.1333 0.1333 0.0000  plane waves:   23778
 k-point ** :   0.1500 0.1500 0.0000  plane waves:   23782
 k-point ** :   0.1667 0.1667 0.0000  plane waves:   23790
 k-point ** :   0.1833 0.1833 0.0000  plane waves:   23808
 k-point ** :   0.2000 0.2000 0.0000  plane waves:   23818
 k-point ** :   0.2167 0.2167 0.0000  plane waves:   23826
 k-point ** :   0.2333 0.2333 0.0000  plane waves:   23818
 k-point ** :   0.2500 0.2500 0.0000  plane waves:   23820
 k-point ** :   0.2667 0.2667 0.0000  plane waves:   23824
 k-point ** :   0.2833 0.2833 0.0000  plane waves:   23826
 k-point ** :   0.3000 0.3000 0.0000  plane waves:   23846
 k-point ** :   0.3167 0.3167 0.0000  plane waves:   23850
 k-point ** :   0.3333 0.3333 0.0000  plane waves:   23826
 k-point ** :   0.3500 0.3500 0.0000  plane waves:   23856
 k-point ** :   0.3667 0.3667 0.0000  plane waves:   23856
 k-point ** :   0.3833 0.3833 0.0000  plane waves:   23840
 k-point ** :   0.4000 0.4000 0.0000  plane waves:   23850
 k-point ** :   0.4167 0.4167 0.0000  plane waves:   23846
 k-point ** :   0.4333 0.4333 0.0000  plane waves:   23822
 k-point ** :   0.4500 0.4500 0.0000  plane waves:   23814
 k-point ** :   0.4667 0.4667 0.0000  plane waves:   23812
 k-point ** :   0.4833 0.4833 0.0000  plane waves:   23814
 k-point ** :   0.5000 0.5000 0.0000  plane waves:   23830
 k-point ** :   0.5167 0.5167 0.0000  plane waves:   23814
 k-point ** :   0.5333 0.5333 0.0000  plane waves:   23812
 k-point ** :   0.5500 0.5500 0.0000  plane waves:   23814
 k-point ** :   0.5667 0.5667 0.0000  plane waves:   23822
 k-point ** :   0.5833 0.5833 0.0000  plane waves:   23846
 k-point ** :   0.6000 0.6000 0.0000  plane waves:   23850
 k-point ** :   0.6167 0.6167 0.0000  plane waves:   23840
 k-point ** :   0.6333 0.6333 0.0000  plane waves:   23856
 k-point ** :   0.6500 0.6500 0.0000  plane waves:   23856
 k-point ** :   0.6667 0.6667 0.0000  plane waves:   23826
 k-point ** :   0.6833 0.6833 0.0000  plane waves:   23850
 k-point ** :   0.7000 0.7000 0.0000  plane waves:   23846
 k-point ** :   0.7167 0.7167 0.0000  plane waves:   23826
 k-point ** :   0.7333 0.7333 0.0000  plane waves:   23824
 k-point ** :   0.7500 0.7500 0.0000  plane waves:   23820
 k-point ** :   0.7667 0.7667 0.0000  plane waves:   23818
 k-point ** :   0.7833 0.7833 0.0000  plane waves:   23826
 k-point ** :   0.8000 0.8000 0.0000  plane waves:   23818
 k-point ** :   0.8167 0.8167 0.0000  plane waves:   23808
 k-point ** :   0.8333 0.8333 0.0000  plane waves:   23790
 k-point ** :   0.8500 0.8500 0.0000  plane waves:   23782
 k-point ** :   0.8667 0.8667 0.0000  plane waves:   23778
 k-point ** :   0.8833 0.8833 0.0000  plane waves:   23760
 k-point ** :   0.9000 0.9000 0.0000  plane waves:   23770
 k-point ** :   0.9167 0.9167 0.0000  plane waves:   23766
 k-point ** :   0.9333 0.9333 0.0000  plane waves:   23756
 k-point ** :   0.9500 0.9500 0.0000  plane waves:   23746
 k-point ** :   0.9667 0.9667 0.0000  plane waves:   23786
 k-point ** :   0.9833 0.9833 0.0000  plane waves:   23779
 k-point ** :   1.0000 1.0000 0.0000  plane waves:   23799
 k-point ** :   1.0167 1.0167 0.0000  plane waves:   23779
 k-point ** :   1.0333 1.0333 0.0000  plane waves:   23786
 k-point ** :   1.0500 1.0500 0.0000  plane waves:   23746
 k-point ** :   1.0667 1.0667 0.0000  plane waves:   23756
 k-point ** :   1.0833 1.0833 0.0000  plane waves:   23766
 k-point ** :   1.1000 1.1000 0.0000  plane waves:   23770
 k-point ** :   1.1167 1.1167 0.0000  plane waves:   23760
 k-point ** :   1.1333 1.1333 0.0000  plane waves:   23778
 k-point ** :   1.1500 1.1500 0.0000  plane waves:   23782
 k-point ** :   1.1667 1.1667 0.0000  plane waves:   23790
 k-point ** :   1.1833 1.1833 0.0000  plane waves:   23808
 k-point ** :   1.2000 1.2000 0.0000  plane waves:   23818
 k-point ** :   1.2167 1.2167 0.0000  plane waves:   23826
 k-point ** :   1.2333 1.2333 0.0000  plane waves:   23818
 k-point ** :   1.2500 1.2500 0.0000  plane waves:   23820
 k-point ** :   1.2667 1.2667 0.0000  plane waves:   23824
 k-point ** :   1.2833 1.2833 0.0000  plane waves:   23826
 k-point ** :   1.3000 1.3000 0.0000  plane waves:   23846
 k-point ** :   1.3167 1.3167 0.0000  plane waves:   23850
 k-point ** :   1.3333 1.3333 0.0000  plane waves:   23826
 k-point ** :   1.3500 1.3500 0.0000  plane waves:   23856
 k-point ** :   1.3667 1.3667 0.0000  plane waves:   23856
 k-point ** :   1.3833 1.3833 0.0000  plane waves:   23840
 k-point ** :   1.4000 1.4000 0.0000  plane waves:   23850
 k-point ** :   1.4167 1.4167 0.0000  plane waves:   23846
 k-point ** :   1.4333 1.4333 0.0000  plane waves:   23822
 k-point ** :   1.4500 1.4500 0.0000  plane waves:   23814
 k-point ** :   1.4667 1.4667 0.0000  plane waves:   23812
 k-point ** :   1.4833 1.4833 0.0000  plane waves:   23814
 k-point ** :   1.5000 1.5000 0.0000  plane waves:   23830
 k-point ** :   1.5167 1.5167 0.0000  plane waves:   23814
 k-point ** :   1.5333 1.5333 0.0000  plane waves:   23812
 k-point ** :   1.5500 1.5500 0.0000  plane waves:   23814
 k-point ** :   1.5667 1.5667 0.0000  plane waves:   23822
 k-point ** :   1.5833 1.5833 0.0000  plane waves:   23846
 k-point ** :   1.6000 1.6000 0.0000  plane waves:   23850
 k-point ** :   1.6167 1.6167 0.0000  plane waves:   23840
 k-point ** :   1.6333 1.6333 0.0000  plane waves:   23856
 k-point ** :   1.6500 1.6500 0.0000  plane waves:   23856
 k-point ** :   1.6667 1.6667 0.0000  plane waves:   23826

 maximum and minimum number of plane-waves per node :     23856    23746

 maximum number of plane-waves:     23856
 maximum index in each direction: 
   IXMAX=   20   IYMAX=   20   IZMAX=   16
   IXMIN=  -21   IYMIN=  -22   IZMIN=  -16


 serial   3D FFT for wavefunctions
 parallel 3D FFT for charge:
    minimum data exchange during FFTs selected (reduces bandwidth)


 total amount of memory used by VASP MPI-rank0  2502629. kBytes
=======================================================================

   base      :      30000. kBytes
   nonlr-proj:       5203. kBytes
   fftplans  :      13053. kBytes
   grid      :      24768. kBytes
   one-center:        150. kBytes
   wavefun   :    2429455. kBytes
 
     INWAV:  cpu time    0.0000: real time    0.0000
 initial charge density was supplied:
 number of electron     195.9999579 magnetization 
 keeping initial charge density in first step


--------------------------------------------------------------------------------------------------------


 Maximum index for non-local projection operator         1207
 Maximum index for augmentation-charges          367 (set IRDMAX)


--------------------------------------------------------------------------------------------------------


 First call to EWALD:  gamma=   0.162
 Maximum number of real-space cells 3x 3x 3
 Maximum number of reciprocal cells 3x 3x 3

    FEWALD:  cpu time    0.0045: real time    0.0048


----------------------------------------- Iteration    1(   1)  ---------------------------------------


    POTLOK:  cpu time    0.0587: real time    0.1160
    SETDIJ:  cpu time    0.0077: real time    0.0217
     EDDAV:  cpu time  106.4235: real time  213.3037
       DOS:  cpu time    0.0035: real time    0.0045
    --------------------------------------------
      LOOP:  cpu time  106.4947: real time  213.4481

 eigenvalue-minimisations  : 51072
 total energy-change (2. order) : 0.1248416E+04  (-0.6901486E+04)
 number of electron     195.9999579 magnetization 
 augmentation part      195.9999579 magnetization 

 Free energy of the ion-electron system (eV)
  ---------------------------------------------------
  alpha Z        PSCENC =       138.85708194
  Ewald energy   TEWEN  =      9130.28498459
  -Hartree energ DENC   =    -15507.95981469
  -exchange      EXHF   =         0.00000000
  -V(xc)+E(xc)   XCENC  =       707.36475670
  PAW double counting   =      3406.89119115    -3469.63674197
  entropy T*S    EENTRO =        -0.01655432
  eigenvalues    EBANDS =      -343.64977844
  atomic energy  EATOM  =      7186.28135141
  Solvation  Ediel_sol  =         0.00000000
  ---------------------------------------------------
  free energy    TOTEN  =      1248.41647637 eV

  energy without entropy =     1248.43303069  energy(sigma->0) =     1248.42475353


--------------------------------------------------------------------------------------------------------




----------------------------------------- Iteration    1(   2)  ---------------------------------------


     EDDAV:  cpu time  140.8130: real time  282.2033
       DOS:  cpu time    0.0030: real time    0.0030
    --------------------------------------------
      LOOP:  cpu time  140.8163: real time  282.2067

 eigenvalue-minimisations  : 72840
 total energy-change (2. order) :-0.1502370E+04  (-0.1423159E+04)
 number of electron     195.9999579 magnetization 
 augmentation part      195.9999579 magnetization 

 Free energy of the ion-electron system (eV)
  ---------------------------------------------------
  alpha Z        PSCENC =       138.85708194
  Ewald energy   TEWEN  =      9130.28498459
  -Hartree energ DENC   =    -15507.95981469
  -exchange      EXHF   =         0.00000000
  -V(xc)+E(xc)   XCENC  =       707.36475670
  PAW double counting   =      3406.89119115    -3469.63674197
  entropy T*S    EENTRO =        -0.00278913
  eigenvalues    EBANDS =     -1846.03382506
  atomic energy  EATOM  =      7186.28135141
  Solvation  Ediel_sol  =         0.00000000
  ---------------------------------------------------
  free energy    TOTEN  =      -253.95380506 eV

  energy without entropy =     -253.95101593  energy(sigma->0) =     -253.95241049


--------------------------------------------------------------------------------------------------------




----------------------------------------- Iteration    1(   3)  ---------------------------------------


     EDDAV:  cpu time  122.4925: real time  245.4735
       DOS:  cpu time    0.0033: real time    0.0044
    --------------------------------------------
      LOOP:  cpu time  122.4964: real time  245.4784

 eigenvalue-minimisations  : 60192
 total energy-change (2. order) :-0.2251840E+03  (-0.2231381E+03)
 number of electron     195.9999579 magnetization 
 augmentation part      195.9999579 magnetization 

 Free energy of the ion-electron system (eV)
  ---------------------------------------------------
  alpha Z        PSCENC =       138.85708194
  Ewald energy   TEWEN  =      9130.28498459
  -Hartree energ DENC   =    -15507.95981469
  -exchange      EXHF   =         0.00000000
  -V(xc)+E(xc)   XCENC  =       707.36475670
  PAW double counting   =      3406.89119115    -3469.63674197
  entropy T*S    EENTRO =        -0.01145194
  eigenvalues    EBANDS =     -2071.20911817
  atomic energy  EATOM  =      7186.28135141
  Solvation  Ediel_sol  =         0.00000000
  ---------------------------------------------------
  free energy    TOTEN  =      -479.13776097 eV

  energy without entropy =     -479.12630903  energy(sigma->0) =     -479.13203500


--------------------------------------------------------------------------------------------------------




----------------------------------------- Iteration    1(   4)  ---------------------------------------


     EDDAV:  cpu time  127.9860: real time  257.0786
       DOS:  cpu time    0.0030: real time    0.0030
    --------------------------------------------
      LOOP:  cpu time  127.9893: real time  257.0819

 eigenvalue-minimisations  : 60736
 total energy-change (2. order) :-0.6811091E+01  (-0.6755889E+01)
 number of electron     195.9999579 magnetization 
 augmentation part      195.9999579 magnetization 

 Free energy of the ion-electron system (eV)
  ---------------------------------------------------
  alpha Z        PSCENC =       138.85708194
  Ewald energy   TEWEN  =      9130.28498459
  -Hartree energ DENC   =    -15507.95981469
  -exchange      EXHF   =         0.00000000
  -V(xc)+E(xc)   XCENC  =       707.36475670
  PAW double counting   =      3406.89119115    -3469.63674197
  entropy T*S    EENTRO =        -0.01678409
  eigenvalues    EBANDS =     -2078.01487735
  atomic energy  EATOM  =      7186.28135141
  Solvation  Ediel_sol  =         0.00000000
  ---------------------------------------------------
  free energy    TOTEN  =      -485.94885230 eV

  energy without entropy =     -485.93206822  energy(sigma->0) =     -485.94046026


--------------------------------------------------------------------------------------------------------




----------------------------------------- Iteration    1(   5)  ---------------------------------------


     EDDAV:  cpu time  129.1381: real time  258.9368
       DOS:  cpu time    0.0031: real time    0.0032
    --------------------------------------------
      LOOP:  cpu time  129.1415: real time  258.9403

 eigenvalue-minimisations  : 66608
 total energy-change (2. order) :-0.2087233E+00  (-0.2082443E+00)
 number of electron     195.9999579 magnetization 
 augmentation part      195.9999579 magnetization 

 Free energy of the ion-electron system (eV)
  ---------------------------------------------------
  alpha Z        PSCENC =       138.85708194
  Ewald energy   TEWEN  =      9130.28498459
  -Hartree energ DENC   =    -15507.95981469
  -exchange      EXHF   =         0.00000000
  -V(xc)+E(xc)   XCENC  =       707.36475670
  PAW double counting   =      3406.89119115    -3469.63674197
  entropy T*S    EENTRO =        -0.01710887
  eigenvalues    EBANDS =     -2078.22327588
  atomic energy  EATOM  =      7186.28135141
  Solvation  Ediel_sol  =         0.00000000
  ---------------------------------------------------
  free energy    TOTEN  =      -486.15757561 eV

  energy without entropy =     -486.14046674  energy(sigma->0) =     -486.14902118


--------------------------------------------------------------------------------------------------------




----------------------------------------- Iteration    1(   6)  ---------------------------------------


    EDDIAG:  cpu time   18.3340: real time   36.7658
  RMM-DIIS:  cpu time   23.8186: real time   47.7280
    ORTHCH:  cpu time   10.0061: real time   20.3402
       DOS:  cpu time    0.0060: real time    0.0129
    --------------------------------------------
      LOOP:  cpu time   52.1651: real time  104.8473

 eigenvalue-minimisations  : 54486
 total energy-change (2. order) :-0.5272354E-02  (-0.5272327E-02)
 number of electron     195.9999579 magnetization 
 augmentation part      195.9999579 magnetization 

 Free energy of the ion-electron system (eV)
  ---------------------------------------------------
  alpha Z        PSCENC =       138.85708194
  Ewald energy   TEWEN  =      9130.28498459
  -Hartree energ DENC   =    -15507.95981469
  -exchange      EXHF   =         0.00000000
  -V(xc)+E(xc)   XCENC  =       707.36475670
  PAW double counting   =      3406.89119115    -3469.63674197
  entropy T*S    EENTRO =        -0.01711653
  eigenvalues    EBANDS =     -2078.22854057
  atomic energy  EATOM  =      7186.28135141
  Solvation  Ediel_sol  =         0.00000000
  ---------------------------------------------------
  free energy    TOTEN  =      -486.16284796 eV

  energy without entropy =     -486.14573143  energy(sigma->0) =     -486.15428970


--------------------------------------------------------------------------------------------------------




----------------------------------------- Iteration    1(   7)  ---------------------------------------


    EDDIAG:  cpu time   15.6689: real time   31.3606
  RMM-DIIS:  cpu time   37.7757: real time   75.6723
    ORTHCH:  cpu time    8.0830: real time   16.2097
       DOS:  cpu time    0.0047: real time    0.0111
    --------------------------------------------
      LOOP:  cpu time   61.5333: real time  123.2543

 eigenvalue-minimisations  : 77699
 total energy-change (2. order) :-0.6523153E-03  (-0.6456959E-03)
 number of electron     195.9999579 magnetization 
 augmentation part      195.9999579 magnetization 

 Free energy of the ion-electron system (eV)
  ---------------------------------------------------
  alpha Z        PSCENC =       138.85708194
  Ewald energy   TEWEN  =      9130.28498459
  -Hartree energ DENC   =    -15507.95981469
  -exchange      EXHF   =         0.00000000
  -V(xc)+E(xc)   XCENC  =       707.36475670
  PAW double counting   =      3406.89119115    -3469.63674197
  entropy T*S    EENTRO =        -0.01711848
  eigenvalues    EBANDS =     -2078.22919093
  atomic energy  EATOM  =      7186.28135141
  Solvation  Ediel_sol  =         0.00000000
  ---------------------------------------------------
  free energy    TOTEN  =      -486.16350028 eV

  energy without entropy =     -486.14638180  energy(sigma->0) =     -486.15494104


--------------------------------------------------------------------------------------------------------




----------------------------------------- Iteration    1(   8)  ---------------------------------------


    EDDIAG:  cpu time   16.9039: real time   33.8463
  RMM-DIIS:  cpu time   31.5515: real time   63.4197
    ORTHCH:  cpu time   11.8111: real time   23.8790
       DOS:  cpu time    0.0029: real time    0.0122
    --------------------------------------------
      LOOP:  cpu time   60.2703: real time  121.1583

 eigenvalue-minimisations  : 65919
 total energy-change (2. order) :-0.6512149E-05  (-0.6892886E-05)
 number of electron     195.9999579 magnetization 
 augmentation part      195.9999579 magnetization 

 Free energy of the ion-electron system (eV)
  ---------------------------------------------------
  alpha Z        PSCENC =       138.85708194
  Ewald energy   TEWEN  =      9130.28498459
  -Hartree energ DENC   =    -15507.95981469
  -exchange      EXHF   =         0.00000000
  -V(xc)+E(xc)   XCENC  =       707.36475670
  PAW double counting   =      3406.89119115    -3469.63674197
  entropy T*S    EENTRO =        -0.01711867
  eigenvalues    EBANDS =     -2078.22919725
  atomic energy  EATOM  =      7186.28135141
  Solvation  Ediel_sol  =         0.00000000
  ---------------------------------------------------
  free energy    TOTEN  =      -486.16350679 eV

  energy without entropy =     -486.14638812  energy(sigma->0) =     -486.15494745


--------------------------------------------------------------------------------------------------------




----------------------------------------- Iteration    1(   9)  ---------------------------------------


    EDDIAG:  cpu time   17.4462: real time   35.0375
  RMM-DIIS:  cpu time   20.1464: real time   40.4292
    ORTHCH:  cpu time    7.9660: real time   15.9838
       DOS:  cpu time    0.0047: real time    0.0079
    --------------------------------------------
      LOOP:  cpu time   45.5638: real time   91.4590

 eigenvalue-minimisations  : 42024
 total energy-change (2. order) :-0.3667210E-06  (-0.3558216E-06)
 number of electron     195.9999579 magnetization 
 augmentation part      195.9999579 magnetization 

 Free energy of the ion-electron system (eV)
  ---------------------------------------------------
  alpha Z        PSCENC =       138.85708194
  Ewald energy   TEWEN  =      9130.28498459
  -Hartree energ DENC   =    -15507.95981469
  -exchange      EXHF   =         0.00000000
  -V(xc)+E(xc)   XCENC  =       707.36475670
  PAW double counting   =      3406.89119115    -3469.63674197
  entropy T*S    EENTRO =        -0.01711868
  eigenvalues    EBANDS =     -2078.22919761
  atomic energy  EATOM  =      7186.28135141
  Solvation  Ediel_sol  =         0.00000000
  ---------------------------------------------------
  free energy    TOTEN  =      -486.16350716 eV

  energy without entropy =     -486.14638847  energy(sigma->0) =     -486.15494782


--------------------------------------------------------------------------------------------------------




 average (electrostatic) potential at core
  the test charge radii are     0.6991
  (the norm of the test charge is              1.0000)
       1 -61.3452       2 -61.0371       3 -61.3453       4 -61.1771       5 -61.1771
       6 -61.3452       7 -61.9532       8 -61.9534       9 -61.3453      10 -61.1942
      11 -61.0883      12 -61.0370      13 -61.9532      14 -61.0371      15 -61.0884
      16 -60.9669      17 -61.0883      18 -61.3452      19 -61.3452      20 -61.0883
      21 -61.0883      22 -61.0884      23 -61.1942      24 -61.1771      25 -61.1942
      26 -61.4061      27 -61.4062      28 -61.2215      29 -61.1799      30 -61.2214
      31 -61.4061      32 -61.4062      33 -61.2090      34 -61.2089      35 -61.1206
      36 -61.4061      37 -61.4061      38 -61.1207      39 -61.0920      40 -61.0920
      41 -61.2089      42 -61.2214      43 -61.2089      44 -61.0920      45 -61.1207
      46 -61.2090      47 -61.1799      48 -61.1799      49 -61.2089
 
 
 
 E-fermi :  -1.7067     XC(G=0):  -4.3486     alpha+bet : -3.8195


 k-point     1 :       0.0000    2.5000    0.0000
  band No.  band energies     occupation 
      1     -20.7078      2.00000
      2     -20.5970      2.00000
      3     -20.2476      2.00000
      4     -20.0794      2.00000
      5     -19.3410      2.00000
      6     -19.2921      2.00000
      7     -19.2728      2.00000
      8     -19.0687      2.00000
      9     -18.8041      2.00000
     10     -18.6035      2.00000
     11     -17.9467      2.00000
     12     -17.9149      2.00000
     13     -17.8529      2.00000
     14     -17.5094      2.00000
     15     -16.6300      2.00000
     16     -16.6113      2.00000
     17     -16.4776      2.00000
     18     -16.4195      2.00000
     19     -16.1945      2.00000
     20     -16.1322      2.00000
     21     -16.1007      2.00000
     22     -15.7843      2.00000
     23     -15.2879      2.00000
     24     -14.8947      2.00000
     25     -14.7784      2.00000
     26     -14.3566      2.00000
     27     -13.8523      2.00000
     28     -13.8347      2.00000
     29     -13.6342      2.00000
     30     -13.5386      2.00000
     31     -13.1875      2.00000
     32     -12.7988      2.00000
     33     -12.4237      2.00000
     34     -12.4132      2.00000
     35     -12.2045      2.00000
     36     -11.9128      2.00000
     37     -11.7652      2.00000
     38     -11.6130      2.00000
     39     -11.4442      2.00000
     40     -11.2805      2.00000
     41     -11.2545      2.00000
     42     -10.6605      2.00000
     43     -10.1989      2.00000
     44     -10.1384      2.00000
     45     -10.1219      2.00000
     46     -10.0231      2.00000
     47      -9.7521      2.00000
     48      -9.4634      2.00000
     49      -8.9802      2.00000
     50      -8.9667      2.00000
     51      -8.9486      2.00000
     52      -8.8660      2.00000
     53      -8.8455      2.00000
     54      -8.7291      2.00000
     55      -8.6973      2.00000
     56      -8.5007      2.00000
     57      -8.4673      2.00000
     58      -8.4084      2.00000
     59      -8.3005      2.00000
     60      -8.2363      2.00000
     61      -8.2312      2.00000
     62      -8.1544      2.00000
     63      -7.7675      2.00000
     64      -7.7589      2.00000
     65      -7.4258      2.00000
     66      -7.3220      2.00000
     67      -7.3209      2.00000
     68      -7.2927      2.00000
     69      -7.2759      2.00000
     70      -7.2363      2.00000
     71      -7.1236      2.00000
     72      -7.0681      2.00000
     73      -7.0570      2.00000
     74      -6.9564      2.00000
     75      -6.7453      2.00000
     76      -6.6099      2.00000
     77      -6.5363      2.00000
     78      -6.1092      2.00000
     79      -5.9827      2.00000
     80      -5.7488      2.00000
     81      -5.7350      2.00000
     82      -5.7165      2.00000
     83      -5.7127      2.00000
     84      -5.6094      2.00000
     85      -5.3431      2.00000
     86      -5.2593      2.00000
     87      -5.0836      2.00000
     88      -4.3199      2.00000
     89      -4.2752      2.00000
     90      -4.2376      2.00000
     91      -4.1890      2.00000
     92      -4.0816      2.00000
     93      -4.0596      2.00000
     94      -4.0567      2.00000
     95      -3.9523      2.00000
     96      -3.0548      2.00000
     97      -2.5753      2.00000
     98      -1.9202      1.99995
     99      -1.6939      0.68960
    100      -1.6127      0.01803
    101      -0.5302      0.00000
    102      -0.3253      0.00000
    103       0.1646      0.00000
    104       0.4736      0.00000
    105       0.4906      0.00000
    106       0.5564      0.00000
    107       0.8153      0.00000
    108       1.1208      0.00000
    109       1.1688      0.00000
    110       1.2160      0.00000
    111       2.0215      0.00000
    112       2.0935      0.00000
    113       2.1565      0.00000
    114       2.7493      0.00000
    115       2.7777      0.00000
    116       2.7977      0.00000
    117       2.7910      0.00000
    118       2.8315      0.00000
    119       3.7663      0.00000
    120       3.7834      0.00000
    121       4.0364      0.00000
    122       4.0606      0.00000
    123       4.1128      0.00000
    124       4.3011      0.00000

 k-point     2 :       0.0000    2.4750    0.0000
  band No.  band energies     occupation 
      1     -20.7116      2.00000
      2     -20.5921      2.00000
      3     -20.2470      2.00000
      4     -20.0790      2.00000
      5     -19.3681      2.00000
      6     -19.2798      2.00000
      7     -19.2639      2.00000
      8     -19.0663      2.00000
      9     -18.8122      2.00000
     10     -18.5890      2.00000
     11     -17.9512      2.00000
     12     -17.9152      2.00000
     13     -17.8474      2.00000
     14     -17.5086      2.00000
     15     -16.7067      2.00000
     16     -16.5341      2.00000
     17     -16.5279      2.00000
     18     -16.3703      2.00000
     19     -16.2308      2.00000
     20     -16.1058      2.00000
     21     -16.0952      2.00000
     22     -15.7834      2.00000
     23     -15.2926      2.00000
     24     -14.8946      2.00000
     25     -14.7702      2.00000
     26     -14.3525      2.00000
     27     -13.8581      2.00000
     28     -13.8373      2.00000
     29     -13.6278      2.00000
     30     -13.5367      2.00000
     31     -13.1921      2.00000
     32     -12.8091      2.00000
     33     -12.5263      2.00000
     34     -12.3108      2.00000
     35     -12.2077      2.00000
     36     -11.9101      2.00000
     37     -11.7601      2.00000
     38     -11.6018      2.00000
     39     -11.4664      2.00000
     40     -11.2588      2.00000
     41     -11.2569      2.00000
     42     -10.6632      2.00000
     43     -10.2292      2.00000
     44     -10.1331      2.00000
     45     -10.1228      2.00000
     46      -9.9940      2.00000
     47      -9.7504      2.00000
     48      -9.4593      2.00000
     49      -9.0030      2.00000
     50      -8.9719      2.00000
     51      -8.9556      2.00000
     52      -8.8569      2.00000
     53      -8.8391      2.00000
     54      -8.7286      2.00000
     55      -8.6998      2.00000
     56      -8.4879      2.00000
     57      -8.4707      2.00000
     58      -8.4077      2.00000
     59      -8.2913      2.00000
     60      -8.2461      2.00000
     61      -8.2358      2.00000
     62      -8.1403      2.00000
     63      -7.7702      2.00000
     64      -7.7695      2.00000
     65      -7.4165      2.00000
     66      -7.3621      2.00000
     67      -7.3546      2.00000
     68      -7.2852      2.00000
     69      -7.2502      2.00000
     70      -7.2117      2.00000
     71      -7.1165      2.00000
     72      -7.0748      2.00000
     73      -7.0516      2.00000
     74      -6.9544      2.00000
     75      -6.7591      2.00000
     76      -6.6049      2.00000
     77      -6.5165      2.00000
     78      -6.1094      2.00000
     79      -5.9932      2.00000
     80      -5.7595      2.00000
     81      -5.7354      2.00000
     82      -5.7112      2.00000
     83      -5.7008      2.00000
     84      -5.6117      2.00000
     85      -5.3421      2.00000
     86      -5.2569      2.00000
     87      -5.0820      2.00000
     88      -4.3873      2.00000
     89      -4.2896      2.00000
     90      -4.2098      2.00000
     91      -4.1437      2.00000
     92      -4.1218      2.00000
     93      -4.0601      2.00000
     94      -4.0147      2.00000
     95      -3.9501      2.00000
     96      -3.0540      2.00000
     97      -2.5764      2.00000
     98      -1.9203      1.99995
     99      -1.6932      0.67381
    100      -1.6125      0.01789
    101      -0.5295      0.00000
    102      -0.3250      0.00000
    103       0.1684      0.00000
    104       0.4523      0.00000
    105       0.4873      0.00000
    106       0.5785      0.00000
    107       0.8103      0.00000
    108       1.0373      0.00000
    109       1.2218      0.00000
    110       1.2543      0.00000
    111       2.0261      0.00000
    112       2.0809      0.00000
    113       2.1706      0.00000
    114       2.7461      0.00000
    115       2.7501      0.00000
    116       2.7987      0.00000
    117       2.7930      0.00000
    118       2.8624      0.00000
    119       3.7511      0.00000
    120       3.8098      0.00000
    121       3.9970      0.00000
    122       4.0807      0.00000
    123       4.1427      0.00000
    124       4.2543      0.00000

 k-point     3 :       0.0000    2.4500    0.0000
  band No.  band energies     occupation 
      1     -20.7215      2.00000
      2     -20.5790      2.00000
      3     -20.2453      2.00000
      4     -20.0778      2.00000
      5     -19.4094      2.00000
      6     -19.2987      2.00000
      7     -19.2192      2.00000
      8     -19.0628      2.00000
      9     -18.8277      2.00000
     10     -18.5522      2.00000
     11     -17.9623      2.00000
     12     -17.9163      2.00000
     13     -17.8330      2.00000
     14     -17.5062      2.00000
     15     -16.7912      2.00000
     16     -16.5988      2.00000
     17     -16.4481      2.00000
     18     -16.3048      2.00000
     19     -16.2858      2.00000
     20     -16.1177      2.00000
     21     -16.0377      2.00000
     22     -15.7827      2.00000
     23     -15.3043      2.00000
     24     -14.8943      2.00000
[...]
     41     -10.8250      2.00000
     42     -10.7506      2.00000
     43     -10.2276      2.00000
     44     -10.2246      2.00000
     45     -10.2234      2.00000
     46      -9.9896      2.00000
     47      -9.9776      2.00000
     48      -9.2904      2.00000
     49      -9.0074      2.00000
     50      -8.9977      2.00000
     51      -8.9854      2.00000
     52      -8.8959      2.00000
     53      -8.8383      2.00000
     54      -8.8146      2.00000
     55      -8.6758      2.00000
     56      -8.6312      2.00000
     57      -8.5466      2.00000
     58      -8.2899      2.00000
     59      -8.2616      2.00000
     60      -8.1593      2.00000
     61      -7.9563      2.00000
     62      -7.7944      2.00000
     63      -7.7655      2.00000
     64      -7.7284      2.00000
     65      -7.5537      2.00000
     66      -7.5381      2.00000
     67      -7.4541      2.00000
     68      -7.4450      2.00000
     69      -7.4388      2.00000
     70      -7.2151      2.00000
     71      -7.0672      2.00000
     72      -7.0263      2.00000
     73      -6.7018      2.00000
     74      -6.6872      2.00000
     75      -6.6703      2.00000
     76      -6.6469      2.00000
     77      -6.6404      2.00000
     78      -6.3236      2.00000
     79      -6.1923      2.00000
     80      -6.1840      2.00000
     81      -6.1163      2.00000
     82      -5.5951      2.00000
     83      -5.3655      2.00000
     84      -5.3408      2.00000
     85      -5.2455      2.00000
     86      -4.7346      2.00000
     87      -4.7192      2.00000
     88      -4.7000      2.00000
     89      -4.6922      2.00000
     90      -4.6375      2.00000
     91      -4.3611      2.00000
     92      -3.8379      2.00000
     93      -3.8149      2.00000
     94      -3.8003      2.00000
     95      -3.7164      2.00000
     96      -3.6788      2.00000
     97      -2.5409      2.00000
     98      -1.6919      0.64650
     99      -1.6307      0.04381
    100      -1.5150      0.00014
    101      -1.1783      0.00000
    102       0.0949      0.00000
    103       0.1046      0.00000
    104       0.2400      0.00000
    105       0.6369      0.00000
    106       0.7040      0.00000
    107       0.8820      0.00000
    108       1.4332      0.00000
    109       1.4374      0.00000
    110       1.4550      0.00000
    111       1.4632      0.00000
    112       1.5649      0.00000
    113       2.1888      0.00000
    114       2.2150      0.00000
    115       2.2997      0.00000
    116       2.8168      0.00000
    117       3.5022      0.00000
    118       3.5064      0.00000
    119       3.5548      0.00000
    120       3.8759      0.00000
    121       3.9012      0.00000
    122       3.9547      0.00000
    123       4.7593      0.00000
    124       4.7952      0.00000


--------------------------------------------------------------------------------------------------------


 soft charge-density along one line, spin component           1
         0         1         2         3         4         5         6         7         8         9
 total charge-density along one line
 
 pseudopotential strength for first ion, spin component:           1
 10.669   0.014   0.000   0.000   0.001  -0.000  -0.000  -0.001
  0.014  -0.001  -0.000  -0.000  -0.000  -0.000  -0.000  -0.000
  0.000  -0.000  -4.204  -0.000  -0.001  -0.013  -0.000   0.000
  0.000  -0.000  -0.000  -4.194  -0.000  -0.000  -0.009  -0.000
  0.001  -0.000  -0.001  -0.000  -4.205   0.000  -0.000  -0.013
 -0.000  -0.000  -0.013  -0.000   0.000  -1.092  -0.000  -0.000
 -0.000  -0.000  -0.000  -0.009  -0.000  -0.000  -1.092  -0.000
 -0.001  -0.000   0.000  -0.000  -0.013  -0.000  -0.000  -1.092
 total augmentation occupancy for first ion, spin component:           1
  2.000   0.000   0.000   0.000   0.000   0.000   0.000   0.000
  0.000   0.000   0.000   0.000   0.000   0.000   0.000   0.000
  0.000   0.000   0.667   0.000   0.000   0.000   0.000   0.000
  0.000   0.000   0.000   0.667   0.000   0.000   0.000   0.000
  0.000   0.000   0.000   0.000   0.667   0.000   0.000   0.000
  0.000   0.000   0.000   0.000   0.000   0.000   0.000   0.000
  0.000   0.000   0.000   0.000   0.000   0.000   0.000   0.000
  0.000   0.000   0.000   0.000   0.000   0.000   0.000   0.000


------------------------ aborting loop because EDIFF is reached ----------------------------------------


    CHARGE:  cpu time    7.2671: real time   14.5657
    FORLOC:  cpu time    0.0814: real time    0.1645
    FORNL :  cpu time   12.0634: real time   24.1682
    STRESS:  cpu time   36.3534: real time   73.4870
    FORHAR:  cpu time    0.1307: real time    0.2589
    OFIELD:  cpu time    0.0010: real time    0.0008

  FORCE on cell =-STRESS in cart. coord.  units (eV):
  Direction    XX          YY          ZZ          XY          YZ          ZX
  --------------------------------------------------------------------------------------
  Alpha Z   138.85708   138.85708   138.85708
  Ewald   15617.60799 15617.60799-22104.95500    -0.00000     0.00000     0.00000
  Hartree 15173.52650 15173.52649-14839.05667    -0.00001    -0.00000    -0.00000
  E(xc)    -707.36476  -707.36476  -707.36476     0.00000     0.00000     0.00000
  Local  -33055.23926-33055.24386 34252.11686    -0.00398    -0.00218    -0.00126
  n-local   -92.97906   -93.38093   -88.67664     0.08949    -0.00007    -0.00003
  augment    -6.49082    -6.48932    -5.95697     0.00131     0.00004     0.00002
  Kinetic  2902.79819  2900.25614  3348.77913    -0.52706     0.00023     0.00013
  Fock        0.00000     0.00000     0.00000     0.00000     0.00000     0.00000
  -------------------------------------------------------------------------------------
  Total     -30.75764   -30.75764    -6.25697     0.00000    -0.00000     0.00000
  in kB     -37.61169   -37.61169    -7.65127     0.00000    -0.00000     0.00000
  external pressure =      -27.62 kB  Pullay stress =        0.00 kB


 VOLUME and BASIS-vectors are now :
 -----------------------------------------------------------------------------
  energy-cutoff  :      400.00
  volume of cell :     1310.21
      direct lattice vectors                 reciprocal lattice vectors
    12.300000000  0.000000000  0.000000000     0.081300813  0.046939046  0.000000000
    -6.150000000 10.652112467  0.000000000     0.000000000  0.093878093  0.000000000
     0.000000000  0.000000000 10.000000000     0.000000000  0.000000000  0.100000000

  length of vectors
    12.300000000 12.300000000 10.000000000     0.093878093  0.093878093  0.100000000


 FORCES acting on ions
    electron-ion (+dipol)            ewald-force                    non-local-force                 convergence-correction
 -----------------------------------------------------------------------------------------------
   -.101E+02 -.108E+02 0.296E-07   0.904E+01 0.103E+02 0.745E-16   0.565E+00 0.599E+00 0.000E+00   -.361E-02 0.759E-01 -.656E-09
   -.178E-03 -.275E+02 0.565E-07   -.129E-10 0.268E+02 0.551E-16   0.694E-17 -.496E+00 0.000E+00   -.222E-03 0.137E+00 0.146E-08
   0.101E+02 -.108E+02 0.596E-07   -.904E+01 0.103E+02 0.840E-16   -.565E+00 0.599E+00 0.000E+00   0.330E-02 0.758E-01 -.261E-10
   0.297E+01 -.172E+01 0.348E-11   -.279E+01 0.161E+01 0.543E-16   -.781E-01 0.451E-01 0.265E-22   -.147E-01 0.846E-02 -.108E-11
   -.297E+01 -.172E+01 0.152E-07   0.279E+01 0.161E+01 0.615E-16   0.781E-01 0.451E-01 0.265E-22   0.144E-01 0.848E-02 0.538E-10
   -.145E+02 -.336E+01 -.300E-07   0.135E+02 0.266E+01 0.986E-17   0.801E+00 0.189E+00 0.000E+00   0.638E-01 -.407E-01 0.858E-09
   -.101E+03 -.582E+02 -.309E-08   0.982E+02 0.567E+02 0.408E-16   0.120E+01 0.690E+00 -.794E-22   0.135E+00 0.787E-01 -.135E-07
   0.101E+03 -.582E+02 0.668E-12   -.982E+02 0.567E+02 0.789E-16   -.120E+01 0.690E+00 0.132E-21   -.136E+00 0.783E-01 0.136E-11
   0.145E+02 -.336E+01 -.596E-07   -.135E+02 0.266E+01 0.601E-16   -.801E+00 0.189E+00 -.199E-22   -.640E-01 -.408E-01 0.240E-10
   -.222E-03 -.746E+00 -.444E-07   0.301E-11 0.622E+00 0.341E-16   -.108E-17 0.892E-02 -.132E-22   -.142E-03 -.383E-01 -.188E-09
   -.490E+01 0.190E+01 -.269E-07   0.466E+01 -.171E+01 0.102E-16   0.218E-02 -.132E+00 -.132E-22   0.593E-01 -.110E+00 -.314E-09
   -.238E+02 0.138E+02 0.216E-11   0.232E+02 -.134E+02 0.287E-17   -.430E+00 0.248E+00 0.000E+00   0.119E+00 -.685E-01 0.360E-11
   -.313E-03 0.116E+03 0.310E-08   -.616E-11 -.113E+03 0.359E-16   -.555E-16 -.138E+01 0.000E+00   -.454E-03 -.157E+00 0.135E-07
   0.238E+02 0.138E+02 -.565E-07   -.232E+02 -.134E+02 -.657E-17   0.430E+00 0.248E+00 0.000E+00   -.119E+00 -.683E-01 -.146E-08
   0.490E+01 0.190E+01 -.413E-07   -.466E+01 -.171E+01 0.209E-16   -.218E-02 -.132E+00 -.265E-22   -.596E-01 -.110E+00 -.938E-10
   -.156E-03 0.900E-04 0.132E-12   -.226E-12 0.139E-10 0.141E-16   -.542E-19 0.163E-18 0.000E+00   -.157E-03 0.909E-04 -.395E-11
   -.410E+01 0.329E+01 0.269E-07   0.381E+01 -.318E+01 0.627E-16   0.116E+00 0.642E-01 0.000E+00   0.125E+00 0.368E-02 0.312E-09
   -.432E+01 0.142E+02 0.300E-07   0.444E+01 -.130E+02 0.538E-16   0.236E+00 -.788E+00 0.397E-22   0.672E-01 -.349E-01 -.857E-09
   0.432E+01 0.142E+02 -.296E-07   -.444E+01 -.130E+02 0.111E-16   -.236E+00 -.788E+00 0.265E-22   -.675E-01 -.348E-01 0.650E-09
   0.410E+01 0.329E+01 -.144E-07   -.381E+01 -.318E+01 0.785E-17   -.116E+00 0.642E-01 0.000E+00   -.125E+00 0.372E-02 -.659E-10
   -.802E+00 -.520E+01 0.144E-07   0.853E+00 0.489E+01 -.114E-17   -.113E+00 0.680E-01 0.132E-22   -.659E-01 0.107E+00 0.545E-10
   0.802E+00 -.520E+01 0.413E-07   -.853E+00 0.489E+01 0.590E-16   0.113E+00 0.680E-01 0.000E+00   0.656E-01 0.107E+00 0.885E-10
   0.646E+00 0.373E+00 0.444E-07   -.539E+00 -.311E+00 0.874E-16   -.773E-02 -.446E-02 0.000E+00   0.331E-01 0.193E-01 0.186E-09
   -.168E-03 0.343E+01 -.152E-07   0.284E-10 -.322E+01 0.705E-16   -.173E-17 -.902E-01 0.000E+00   -.166E-03 -.167E-01 -.631E-10
   -.646E+00 0.373E+00 0.501E-12   0.539E+00 -.311E+00 0.693E-17   0.773E-02 -.446E-02 -.496E-23   -.334E-01 0.193E-01 -.547E-11
   -.174E+02 -.320E+02 0.511E-07   0.183E+02 0.316E+02 -.812E-16   0.766E+00 0.163E+01 -.529E-22   -.416E-01 0.168E+00 0.457E-10
   0.174E+02 -.320E+02 0.280E-07   -.183E+02 0.316E+02 -.371E-16   -.766E+00 0.163E+01 0.529E-22   0.422E-01 0.168E+00 -.191E-08
   0.853E+01 -.493E+01 -.535E-11   -.851E+01 0.491E+01 -.684E-16   -.957E-01 0.552E-01 0.000E+00   -.401E-01 0.232E-01 -.142E-11
   0.162E-03 -.113E+01 0.252E-07   -.219E-10 0.114E+01 -.471E-16   0.542E-18 -.288E-04 -.993E-23   0.331E-03 -.278E-01 0.551E-11
   -.853E+01 -.493E+01 0.400E-07   0.851E+01 0.491E+01 -.678E-16   0.957E-01 0.552E-01 0.000E+00   0.408E-01 0.232E-01 -.215E-09
   -.364E+02 0.917E+00 0.231E-07   0.365E+02 0.290E-10 -.987E-16   0.180E+01 -.152E+00 0.000E+00   0.125E+00 -.121E+00 -.895E-09
   0.364E+02 0.917E+00 -.280E-07   -.365E+02 0.249E-10 -.119E-15   -.180E+01 -.152E+00 -.106E-21   -.125E+00 -.121E+00 0.192E-08
   0.586E+01 0.499E+00 -.277E-08   -.556E+01 0.430E-11 -.961E-16   -.294E+00 -.148E+00 0.496E-22   -.491E-01 -.843E-01 -.520E-09
   -.586E+01 0.499E+00 0.120E-07   0.556E+01 0.239E-10 -.535E-16   0.294E+00 -.148E+00 -.529E-22   0.498E-01 -.843E-01 -.656E-09
   -.818E+01 0.472E+01 -.242E-11   0.851E+01 -.491E+01 -.126E-15   0.387E-01 -.223E-01 0.000E+00   0.634E-01 -.366E-01 0.128E-11
   -.190E+02 0.311E+02 -.231E-07   0.183E+02 -.316E+02 -.665E-16   0.103E+01 -.148E+01 0.132E-22   0.167E+00 -.483E-01 0.900E-09
   0.190E+02 0.311E+02 -.511E-07   -.183E+02 -.316E+02 -.148E-15   -.103E+01 -.148E+01 0.132E-22   -.167E+00 -.481E-01 -.479E-10
   0.818E+01 0.472E+01 -.259E-07   -.851E+01 -.491E+01 -.153E-15   -.387E-01 -.223E-01 0.000E+00   -.628E-01 -.366E-01 0.342E-10
   0.153E-03 0.151E+01 -.111E-07   0.304E-11 -.114E+01 -.123E-15   -.260E-17 -.145E+00 -.132E-22   0.331E-03 -.189E+00 0.242E-09
   -.131E+01 -.755E+00 0.111E-07   0.991E+00 0.572E+00 -.121E-15   0.125E+00 0.724E-01 0.000E+00   0.164E+00 0.941E-01 -.246E-09
   -.336E+01 0.482E+01 -.120E-07   0.278E+01 -.482E+01 -.661E-16   0.275E+00 -.180E+00 -.132E-22   0.979E-01 -.928E-03 0.650E-09
   0.160E-03 0.985E+01 -.400E-07   0.758E-11 -.982E+01 -.688E-16   0.000E+00 -.110E+00 0.000E+00   0.300E-03 -.470E-01 0.211E-09
   0.336E+01 0.482E+01 -.147E-07   -.278E+01 -.482E+01 -.947E-16   -.275E+00 -.180E+00 -.265E-22   -.973E-01 -.893E-03 0.167E-09
   0.131E+01 -.755E+00 0.130E-10   -.991E+00 0.572E+00 -.106E-15   -.125E+00 0.724E-01 0.281E-22   -.163E+00 0.941E-01 -.690E-11
   0.156E-03 -.945E+01 0.259E-07   0.170E-10 0.982E+01 -.811E-16   -.651E-18 0.447E-01 0.000E+00   0.300E-03 0.726E-01 -.431E-10
   0.250E+01 -.532E+01 0.278E-08   -.278E+01 0.482E+01 -.948E-16   -.188E-01 0.328E+00 0.000E+00   0.485E-01 0.847E-01 0.516E-09
   0.979E+00 0.565E+00 -.252E-07   -.991E+00 -.572E+00 -.886E-16   0.250E-04 0.144E-04 0.000E+00   0.242E-01 0.136E-01 -.107E-10
   -.979E+00 0.565E+00 0.148E-10   0.991E+00 -.572E+00 -.623E-16   -.250E-04 0.144E-04 0.993E-23   -.236E-01 0.136E-01 -.743E-11
   -.250E+01 -.532E+01 0.148E-07   0.278E+01 0.482E+01 -.101E-15   0.188E-01 0.328E+00 0.000E+00   -.479E-01 0.847E-01 -.179E-09
 -----------------------------------------------------------------------------------------------
   0.538E-04 -.311E-04 0.154E-09   0.933E-14 -.933E-13 -.118E-14   0.520E-16 -.333E-15 0.000E+00   0.392E-02 -.227E-02 -.979E-10
 
 
 POSITION                                       TOTAL-FORCE (eV/Angst)
 -----------------------------------------------------------------------------------
      0.00000      0.00000      5.00000        -0.540999      0.170113     -0.000000
      2.46000      0.00000      5.00000        -0.000000     -1.121887     -0.000000
      4.92000      0.00000      5.00000         0.540999      0.170113      0.000000
      7.38000      0.00000      5.00000         0.088737     -0.051232     -0.000000
      9.84000      0.00000      5.00000        -0.088737     -0.051232      0.000000
     -1.23000      2.13042      5.00000        -0.123178     -0.553575      0.000000
      1.23000      2.13042      5.00000        -1.336779     -0.771790     -0.000000
      3.69000      2.13042      5.00000         1.336779     -0.771790     -0.000000
      6.15000      2.13042      5.00000         0.123178     -0.553575     -0.000000
      8.61000      2.13042      5.00000         0.000000     -0.153144      0.000000
     -2.46000      4.26084      5.00000        -0.180901     -0.044254     -0.000000
      0.00000      4.26084      5.00000        -0.971582      0.560943     -0.000000
      2.46000      4.26084      5.00000        -0.000000      1.543580     -0.000000
      4.92000      4.26084      5.00000         0.971582      0.560943     -0.000000
      7.38000      4.26084      5.00000         0.180901     -0.044254      0.000000
     -3.69000      6.39127      5.00000         0.000000      0.000000     -0.000000
     -1.23000      6.39127      5.00000        -0.052126      0.178791     -0.000000
      1.23000      6.39127      5.00000         0.417821      0.383462     -0.000000
      3.69000      6.39127      5.00000        -0.417821      0.383462      0.000000
      6.15000      6.39127      5.00000         0.052126      0.178791     -0.000000
     -4.92000      8.52169      5.00000        -0.128775     -0.134538      0.000000
     -2.46000      8.52169      5.00000         0.128775     -0.134538      0.000000
      0.00000      8.52169      5.00000         0.132626      0.076572     -0.000000
      2.46000      8.52169      5.00000         0.000000      0.102464     -0.000000
      4.92000      8.52169      5.00000        -0.132626      0.076572     -0.000000
      1.23000      0.71014      5.00000         1.580380      1.448322      0.000000
      3.69000      0.71014      5.00000        -1.580380      1.448322      0.000000
      6.15000      0.71014      5.00000        -0.111652      0.064462     -0.000000
      8.61000      0.71014      5.00000         0.000000     -0.013054      0.000000
     11.07000      0.71014      5.00000         0.111652      0.064462     -0.000000
      0.00000      2.84056      5.00000         2.044474      0.644488     -0.000000
      4.92000      2.84056      5.00000        -2.044474      0.644488     -0.000000
      7.38000      2.84056      5.00000        -0.045952      0.266742      0.000000
      9.84000      2.84056      5.00000         0.045952      0.266742     -0.000000
     -1.23000      4.97099      5.00000         0.429135     -0.247761     -0.000000
      1.23000      4.97099      5.00000         0.464094     -2.092811      0.000000
      3.69000      4.97099      5.00000        -0.464094     -2.092811      0.000000
      6.15000      4.97099      5.00000        -0.429135     -0.247761      0.000000
      8.61000      4.97099      5.00000         0.000000      0.032379      0.000000
     -2.46000      7.10141      5.00000        -0.028041     -0.016189     -0.000000
      0.00000      7.10141      5.00000        -0.208030     -0.173167     -0.000000
      2.46000      7.10141      5.00000         0.000000     -0.128924     -0.000000
      4.92000      7.10141      5.00000         0.208030     -0.173167     -0.000000
      7.38000      7.10141      5.00000         0.028041     -0.016189     -0.000000
     -3.69000      9.23183      5.00000         0.000000      0.495522      0.000000
     -1.23000      9.23183      5.00000        -0.253981     -0.093576     -0.000000
      1.23000      9.23183      5.00000         0.011305      0.006527     -0.000000
      3.69000      9.23183      5.00000        -0.011305      0.006527     -0.000000
      6.15000      9.23183      5.00000         0.253981     -0.093576     -0.000000
 -----------------------------------------------------------------------------------
    total drift:                                0.003978     -0.002297      0.000000


--------------------------------------------------------------------------------------------------------



  FREE ENERGIE OF THE ION-ELECTRON SYSTEM (eV)
  ---------------------------------------------------
  free  energy   TOTEN  =      -486.16350716 eV

  energy  without entropy=     -486.14638847  energy(sigma->0) =     -486.15494782
 


--------------------------------------------------------------------------------------------------------


    POTLOK:  cpu time    0.0672: real time    0.1368


--------------------------------------------------------------------------------------------------------


 stress matrix after NEB project (eV)
    -30.75764      0.00000      0.00000
      0.00000    -30.75764      0.00000
      0.00000     -0.00000     -6.25697
  FORCES: max atom, RMS     2.143651    0.925430
  FORCE total and by dimension    6.478011    2.092811
  Stress total and by dimension   43.945591   30.757644
 writing wavefunctions
     LOOP+:  cpu time  938.3019: real time 1882.8965
    4ORBIT:  cpu time    0.0000: real time    0.0000

 total amount of memory used by VASP MPI-rank0  2502629. kBytes
=======================================================================

   base      :      30000. kBytes
   nonlr-proj:       5203. kBytes
   fftplans  :      13053. kBytes
   grid      :      24768. kBytes
   one-center:        150. kBytes
   wavefun   :    2429455. kBytes
 
  
  
 General timing and accounting informations for this job:
 ========================================================
  
                  Total CPU time used (sec):      997.505
                            User time (sec):      868.627
                          System time (sec):      128.878
                         Elapsed time (sec):     2003.442
  
                   Maximum memory used (kb):     4558552.
                   Average memory used (kb):           0.
  
                          Minor page faults:      2901132
                          Major page faults:            0
                 Voluntary context switches:       177992
