  51  51   0   0
  0.5138078E+02  0.1230000E-08  0.1230000E-08  0.2000000E-08  0.5000000E-15
  1.000000000000000E-004
  CAR 
                                         
      5.97115200    -33.53544811  301     -3.01708203      1.00000000
    -33.535  0.0000E+00  0.0000E+00
    -33.404  0.0000E+00  0.0000E+00
    -33.272  0.0000E+00  0.0000E+00
    -33.140  0.0000E+00  0.0000E+00
    -33.009  0.0000E+00  0.0000E+00
    -32.877  0.0000E+00  0.0000E+00
    -32.745  0.0000E+00  0.0000E+00
    -32.614  0.0000E+00  0.0000E+00
    -32.482  0.0000E+00  0.0000E+00
    -32.350  0.0000E+00  0.0000E+00
    -32.219  0.0000E+00  0.0000E+00
    -32.087  0.0000E+00  0.0000E+00
    -31.955  0.8243E-08  0.1085E-08
    -31.823  0.1345E+00  0.1771E-01
    -31.692  0.1372E+02  0.1824E+01
    -31.560  0.1337E+01  0.2000E+01
    -31.428  0.2899E-05  0.2000E+01
    -31.297  0.0000E+00  0.2000E+01
    -31.165  0.0000E+00  0.2000E+01
    -31.033  0.0000E+00  0.2000E+01
    -30.902  0.0000E+00  0.2000E+01
    -30.770  0.0000E+00  0.2000E+01
    -30.638  0.0000E+00  0.2000E+01
    -30.507  0.0000E+00  0.2000E+01
    -30.375  0.0000E+00  0.2000E+01
    -30.243  0.0000E+00  0.2000E+01
    -30.112  0.0000E+00  0.2000E+01
    -29.980  0.0000E+00  0.2000E+01
    -29.848  0.0000E+00  0.2000E+01
    -29.716  0.0000E+00  0.2000E+01
    -29.585  0.0000E+00  0.2000E+01
    -29.453  0.0000E+00  0.2000E+01
    -29.321  0.0000E+00  0.2000E+01
    -29.190  0.0000E+00  0.2000E+01
    -29.058  0.0000E+00  0.2000E+01
    -28.926  0.0000E+00  0.2000E+01
    -28.795  0.0000E+00  0.2000E+01
    -28.663  0.0000E+00  0.2000E+01
    -28.531  0.0000E+00  0.2000E+01
    -28.400  0.0000E+00  0.2000E+01
    -28.268  0.0000E+00  0.2000E+01
    -28.136  0.0000E+00  0.2000E+01
    -28.005  0.0000E+00  0.2000E+01
    -27.873  0.0000E+00  0.2000E+01
    -27.741  0.0000E+00  0.2000E+01
    -27.609  0.0000E+00  0.2000E+01
    -27.478  0.0000E+00  0.2000E+01
    -27.346  0.0000E+00  0.2000E+01
    -27.214  0.0000E+00  0.2000E+01
    -27.083  0.0000E+00  0.2000E+01
    -26.951  0.0000E+00  0.2000E+01
    -26.819  0.0000E+00  0.2000E+01
    -26.688  0.0000E+00  0.2000E+01
    -26.556  0.0000E+00  0.2000E+01
    -26.424  0.0000E+00  0.2000E+01
    -26.293  0.0000E+00  0.2000E+01
    -26.161  0.0000E+00  0.2000E+01
    -26.029  0.0000E+00  0.2000E+01
    -25.898  0.0000E+00  0.2000E+01
    -25.766  0.0000E+00  0.2000E+01
    -25.634  0.0000E+00  0.2000E+01
    -25.502  0.0000E+00  0.2000E+01
    -25.371  0.0000E+00  0.2000E+01
    -25.239  0.0000E+00  0.2000E+01
    -25.107  0.0000E+00  0.2000E+01
    -24.976  0.0000E+00  0.2000E+01
    -24.844  0.0000E+00  0.2000E+01
    -24.712  0.0000E+00  0.2000E+01
    -24.581  0.0000E+00  0.2000E+01
    -24.449  0.0000E+00  0.2000E+01
    -24.317  0.0000E+00  0.2000E+01
    -24.186  0.0000E+00  0.2000E+01
    -24.054  0.0000E+00  0.2000E+01
    -23.922  0.0000E+00  0.2000E+01
    -23.790  0.0000E+00  0.2000E+01
    -23.659  0.0000E+00  0.2000E+01
    -23.527  0.0000E+00  0.2000E+01
    -23.395  0.0000E+00  0.2000E+01
    -23.264  0.0000E+00  0.2000E+01
    -23.132  0.0000E+00  0.2000E+01
    -23.000  0.0000E+00  0.2000E+01
    -22.869  0.0000E+00  0.2000E+01
    -22.737  0.0000E+00  0.2000E+01
    -22.605  0.0000E+00  0.2000E+01
    -22.474  0.8588E-08  0.2000E+01
    -22.342  0.3819E-01  0.2005E+01
    -22.210  0.4360E+01  0.2579E+01
    -22.079  0.9248E+01  0.3797E+01
    -21.947  0.4916E+01  0.4444E+01
    -21.815  0.1063E+02  0.5844E+01
    -21.683  0.5488E+01  0.6567E+01
    -21.552  0.7781E+01  0.7591E+01
    -21.420  0.1264E+02  0.9256E+01
    -21.288  0.5644E+01  0.9999E+01
    -21.157  0.3618E+01  0.1048E+02
    -21.025  0.9321E+01  0.1170E+02
    -20.893  0.1078E+02  0.1312E+02
    -20.762  0.1010E+02  0.1445E+02
    -20.630  0.8354E+01  0.1555E+02
    -20.498  0.1881E+00  0.1558E+02
    -20.367  0.1313E+02  0.1731E+02
    -20.235  0.3960E+01  0.1783E+02
    -20.103  0.1856E+02  0.2027E+02
    -19.972  0.1324E+01  0.2045E+02
    -19.840  0.3506E+01  0.2091E+02
    -19.708  0.1365E+02  0.2271E+02
    -19.576  0.8717E+01  0.2385E+02
    -19.445  0.6167E+01  0.2467E+02
    -19.313  0.6895E+01  0.2557E+02
    -19.181  0.1399E+02  0.2742E+02
    -19.050  0.7499E+01  0.2840E+02
    -18.918  0.4733E+01  0.2903E+02
    -18.786  0.5268E+01  0.2972E+02
    -18.655  0.4975E+01  0.3038E+02
    -18.523  0.1407E+02  0.3223E+02
    -18.391  0.1143E+02  0.3373E+02
    -18.260  0.8709E+01  0.3488E+02
    -18.128  0.4604E+01  0.3549E+02
    -17.996  0.1557E+02  0.3754E+02
    -17.864  0.4773E+01  0.3816E+02
    -17.733  0.3712E+01  0.3865E+02
    -17.601  0.5509E+01  0.3938E+02
    -17.469  0.1597E+02  0.4148E+02
    -17.338  0.4338E+01  0.4205E+02
    -17.206  0.2134E+02  0.4486E+02
    -17.074  0.6752E+01  0.4575E+02
    -16.943  0.3558E+01  0.4622E+02
    -16.811  0.8807E+01  0.4738E+02
    -16.679  0.4165E+01  0.4793E+02
    -16.548  0.8845E+01  0.4910E+02
    -16.416  0.8910E+01  0.5027E+02
    -16.284  0.2975E+01  0.5066E+02
    -16.153  0.9283E+01  0.5188E+02
    -16.021  0.5797E+01  0.5265E+02
    -15.889  0.1318E+02  0.5438E+02
    -15.757  0.1198E+02  0.5596E+02
    -15.626  0.2093E+01  0.5624E+02
    -15.494  0.4203E+01  0.5679E+02
    -15.362  0.2788E+01  0.5716E+02
    -15.231  0.1015E+02  0.5849E+02
    -15.099  0.2192E+02  0.6138E+02
    -14.967  0.4853E+01  0.6202E+02
    -14.836  0.1145E+02  0.6353E+02
    -14.704  0.1050E+02  0.6491E+02
    -14.572  0.6396E+01  0.6575E+02
    -14.441  0.1556E+02  0.6780E+02
    -14.309  0.4883E+01  0.6844E+02
    -14.177  0.1101E+01  0.6859E+02
    -14.046  0.3992E+01  0.6912E+02
    -13.914  0.9801E+01  0.7041E+02
    -13.782  0.1660E+02  0.7259E+02
    -13.650  0.1826E+02  0.7500E+02
    -13.519  0.1725E+01  0.7522E+02
    -13.387  0.2518E+01  0.7556E+02
    -13.255  0.4780E+00  0.7562E+02
    -13.124  0.1114E+02  0.7708E+02
    -12.992  0.1389E+02  0.7891E+02
    -12.860  0.2051E+02  0.8162E+02
    -12.729  0.1232E+01  0.8178E+02
    -12.597  0.4590E+01  0.8238E+02
    -12.465  0.1770E+02  0.8471E+02
    -12.334  0.1092E+02  0.8615E+02
    -12.202  0.3678E+01  0.8663E+02
    -12.070  0.3185E+01  0.8705E+02
    -11.939  0.1216E+02  0.8866E+02
    -11.807  0.3565E+01  0.8912E+02
    -11.675  0.1573E+02  0.9120E+02
    -11.543  0.1795E+02  0.9356E+02
    -11.412  0.1356E+02  0.9534E+02
    -11.280  0.8399E+01  0.9645E+02
    -11.148  0.5707E+01  0.9720E+02
    -11.017  0.7769E+01  0.9823E+02
    -10.885  0.1274E+02  0.9990E+02
    -10.753  0.1720E+02  0.1022E+03
    -10.622  0.1940E+01  0.1024E+03
    -10.490  0.2046E+02  0.1051E+03
    -10.358  0.3973E+01  0.1056E+03
    -10.227  0.2445E+02  0.1089E+03
    -10.095  0.2553E+02  0.1122E+03
     -9.963  0.1845E+02  0.1147E+03
     -9.831  0.1450E+02  0.1166E+03
     -9.700  0.1759E+02  0.1189E+03
     -9.568  0.2737E+02  0.1225E+03
     -9.436  0.2116E+02  0.1253E+03
     -9.305  0.2714E+02  0.1288E+03
     -9.173  0.2351E+02  0.1319E+03
     -9.041  0.2868E+02  0.1357E+03
     -8.910  0.2010E+02  0.1384E+03
     -8.778  0.1778E+02  0.1407E+03
     -8.646  0.2307E+02  0.1437E+03
     -8.515  0.1769E+02  0.1461E+03
     -8.383  0.1628E+02  0.1482E+03
     -8.251  0.1549E+02  0.1503E+03
     -8.120  0.1579E+02  0.1523E+03
     -7.988  0.2874E+02  0.1561E+03
     -7.856  0.1617E+02  0.1583E+03
     -7.724  0.1654E+02  0.1604E+03
     -7.593  0.7965E+01  0.1615E+03
     -7.461  0.2305E+01  0.1618E+03
     -7.329  0.1742E+02  0.1641E+03
     -7.198  0.3216E+02  0.1683E+03
     -7.066  0.1602E+02  0.1704E+03
     -6.934  0.4466E+01  0.1710E+03
     -6.803  0.1924E+02  0.1735E+03
     -6.671  0.1249E+02  0.1752E+03
     -6.539  0.1613E+02  0.1773E+03
     -6.408  0.7146E+01  0.1783E+03
     -6.276  0.1244E+02  0.1799E+03
     -6.144  0.1529E+02  0.1819E+03
     -6.013  0.1385E+02  0.1837E+03
     -5.881  0.2010E+02  0.1864E+03
     -5.749  0.7770E+01  0.1874E+03
     -5.617  0.1398E+02  0.1892E+03
     -5.486  0.3103E+01  0.1896E+03
     -5.354  0.7775E+01  0.1907E+03
     -5.222  0.8810E+01  0.1918E+03
     -5.091  0.1156E+02  0.1934E+03
     -4.959  0.1848E+02  0.1958E+03
     -4.827  0.1519E+02  0.1978E+03
     -4.696  0.3200E+01  0.1982E+03
     -4.564  0.9722E-01  0.1982E+03
     -4.432  0.3151E-04  0.1982E+03
     -4.301  0.2813E+01  0.1986E+03
     -4.169  0.1753E+02  0.2009E+03
     -4.037  0.4966E+01  0.2016E+03
     -3.905  0.8736E-03  0.2016E+03
     -3.774  0.4079E+00  0.2016E+03
     -3.642  0.2949E+01  0.2020E+03
     -3.510  0.2634E+00  0.2020E+03
     -3.379  0.4261E+01  0.2026E+03
     -3.247  0.1230E+02  0.2042E+03
     -3.115  0.1078E+02  0.2056E+03
     -2.984  0.2827E+01  0.2060E+03
     -2.852  0.2441E+01  0.2063E+03
     -2.720  0.9229E+01  0.2075E+03
     -2.589  0.9475E-01  0.2076E+03
     -2.457  0.8150E-01  0.2076E+03
     -2.325  0.3165E+01  0.2080E+03
     -2.194  0.2820E+01  0.2084E+03
     -2.062  0.6834E+00  0.2084E+03
     -1.930  0.8736E-05  0.2084E+03
     -1.798  0.1738E-07  0.2084E+03
     -1.667  0.1448E+00  0.2085E+03
     -1.535  0.9433E+01  0.2097E+03
     -1.403  0.1264E+02  0.2114E+03
     -1.272  0.3098E+01  0.2118E+03
     -1.140  0.1313E-03  0.2118E+03
     -1.008  0.1097E+01  0.2119E+03
     -0.877  0.1055E+02  0.2133E+03
     -0.745  0.2351E+02  0.2164E+03
     -0.613  0.1829E+02  0.2188E+03
     -0.482  0.5356E+01  0.2195E+03
     -0.350  0.2820E+00  0.2196E+03
     -0.218  0.4465E+01  0.2201E+03
     -0.087  0.1119E+02  0.2216E+03
      0.045  0.1060E+02  0.2230E+03
      0.177  0.8286E+00  0.2231E+03
      0.309  0.1604E+02  0.2252E+03
      0.440  0.7733E+01  0.2263E+03
      0.572  0.3246E+01  0.2267E+03
      0.704  0.1086E+02  0.2281E+03
      0.835  0.1701E+02  0.2304E+03
      0.967  0.6234E+01  0.2312E+03
      1.099  0.1085E+02  0.2326E+03
      1.230  0.1510E+02  0.2346E+03
      1.362  0.8288E+01  0.2357E+03
      1.494  0.1491E+02  0.2376E+03
      1.625  0.2283E+02  0.2407E+03
      1.757  0.1573E+02  0.2427E+03
      1.889  0.2747E+02  0.2463E+03
      2.020  0.8548E+01  0.2475E+03
      2.152  0.1579E+02  0.2495E+03
      2.284  0.2608E+02  0.2530E+03
      2.416  0.2895E+02  0.2568E+03
      2.547  0.7555E+01  0.2578E+03
      2.679  0.6214E+01  0.2586E+03
      2.811  0.8889E+01  0.2598E+03
      2.942  0.5329E+01  0.2605E+03
      3.074  0.9167E+01  0.2617E+03
      3.206  0.2765E+01  0.2621E+03
      3.337  0.4638E+01  0.2627E+03
      3.469  0.3129E-01  0.2627E+03
      3.601  0.2951E+01  0.2631E+03
      3.732  0.3796E+01  0.2636E+03
      3.864  0.1964E-02  0.2636E+03
      3.996  0.6397E-06  0.2636E+03
      4.128  0.2963E+00  0.2636E+03
      4.259  0.3049E+01  0.2640E+03
      4.391  0.2999E-01  0.2640E+03
      4.523  0.1847E-08  0.2640E+03
      4.654  0.0000E+00  0.2640E+03
      4.786  0.0000E+00  0.2640E+03
      4.918  0.0000E+00  0.2640E+03
      5.049  0.0000E+00  0.2640E+03
      5.181  0.0000E+00  0.2640E+03
      5.313  0.0000E+00  0.2640E+03
      5.444  0.0000E+00  0.2640E+03
      5.576  0.0000E+00  0.2640E+03
      5.708  0.0000E+00  0.2640E+03
      5.839  0.0000E+00  0.2640E+03
      5.971  0.0000E+00  0.2640E+03
