 running on   48 total cores
 distrk:  each k-point on   48 cores,    1 groups
 distr:  one band on    8 cores,    6 groups
 using from now: INCAR     
 vasp.5.4.4.18Apr17-6-g9f103f2a35 (build Aug 13 2022 23:40:43) complex          
  
 POSCAR found type information on POSCAR  C  O 
 POSCAR found :  2 types and      51 ions
 scaLAPACK will be used

 ----------------------------------------------------------------------------- 
|                                                                             |
|  ADVICE TO THIS USER RUNNING 'VASP/VAMP'   (HEAR YOUR MASTER'S VOICE ...):  |
|                                                                             |
|      You have a (more or less) 'large supercell' and for larger cells       |
|      it might be more efficient to use real space projection opertators     |
|      So try LREAL= Auto  in the INCAR   file.                               |
|      Mind:          For very  accurate calculation you might also keep the  |
|      reciprocal projection scheme          (i.e. LREAL=.FALSE.)             |
|                                                                             |
 ----------------------------------------------------------------------------- 

 LDA part: xc-table for Pade appr. of Perdew
 POSCAR found type information on POSCAR  C  O 
 POSCAR found :  2 types and      51 ions
 found WAVECAR, reading the header
  number of k-points has changed, file:     3 present:     5
  trying to continue reading WAVECAR, but it might fail
 POSCAR, INCAR and KPOINTS ok, starting setup
 FFT: planning ...
 reading WAVECAR
 the WAVECAR file was read successfully
 charge-density read from file: 1.00000000000000                        
 entering main loop
       N       E                     dE             d eps       ncg     rms          rms(c)
DAV:   1    -0.453294219230E+03   -0.45329E+03   -0.28415E+02  1356   0.216E+01    0.499E-01
RMM:   2    -0.454281802148E+03   -0.98758E+00   -0.99005E+00  1417   0.566E+00    0.206E-01
RMM:   3    -0.454334026813E+03   -0.52225E-01   -0.58497E-01  1580   0.110E+00    0.154E-01
RMM:   4    -0.454337905323E+03   -0.38785E-02   -0.40702E-02  1581   0.312E-01    0.152E-01
RMM:   5    -0.454338012231E+03   -0.10691E-03   -0.31848E-03  1511   0.907E-02    0.609E-02
RMM:   6    -0.454338038590E+03   -0.26359E-04   -0.49628E-04  1528   0.461E-02    0.158E-02
RMM:   7    -0.454338045310E+03   -0.67202E-05   -0.21912E-05  1037   0.110E-02
   1 F= -.45433805E+03 E0= -.45433799E+03  d E =-.115295E-03
