  51  51   0   0
  0.5138078E+02  0.1230000E-08  0.1230000E-08  0.2000000E-08  0.5000000E-15
  1.000000000000000E-004
  CAR 
                                         
      5.96790407    -33.53484824  301     -3.01734432      1.00000000
    -33.535  0.0000E+00  0.0000E+00
    -33.403  0.0000E+00  0.0000E+00
    -33.271  0.0000E+00  0.0000E+00
    -33.140  0.0000E+00  0.0000E+00
    -33.008  0.0000E+00  0.0000E+00
    -32.876  0.0000E+00  0.0000E+00
    -32.745  0.0000E+00  0.0000E+00
    -32.613  0.0000E+00  0.0000E+00
    -32.481  0.0000E+00  0.0000E+00
    -32.350  0.0000E+00  0.0000E+00
    -32.218  0.0000E+00  0.0000E+00
    -32.086  0.0000E+00  0.0000E+00
    -31.955  0.8274E-08  0.1089E-08
    -31.823  0.1346E+00  0.1772E-01
    -31.691  0.1372E+02  0.1824E+01
    -31.560  0.1337E+01  0.2000E+01
    -31.428  0.2907E-05  0.2000E+01
    -31.296  0.0000E+00  0.2000E+01
    -31.165  0.0000E+00  0.2000E+01
    -31.033  0.0000E+00  0.2000E+01
    -30.901  0.0000E+00  0.2000E+01
    -30.770  0.0000E+00  0.2000E+01
    -30.638  0.0000E+00  0.2000E+01
    -30.506  0.0000E+00  0.2000E+01
    -30.375  0.0000E+00  0.2000E+01
    -30.243  0.0000E+00  0.2000E+01
    -30.111  0.0000E+00  0.2000E+01
    -29.980  0.0000E+00  0.2000E+01
    -29.848  0.0000E+00  0.2000E+01
    -29.716  0.0000E+00  0.2000E+01
    -29.585  0.0000E+00  0.2000E+01
    -29.453  0.0000E+00  0.2000E+01
    -29.321  0.0000E+00  0.2000E+01
    -29.190  0.0000E+00  0.2000E+01
    -29.058  0.0000E+00  0.2000E+01
    -28.926  0.0000E+00  0.2000E+01
    -28.795  0.0000E+00  0.2000E+01
    -28.663  0.0000E+00  0.2000E+01
    -28.531  0.0000E+00  0.2000E+01
    -28.399  0.0000E+00  0.2000E+01
    -28.268  0.0000E+00  0.2000E+01
    -28.136  0.0000E+00  0.2000E+01
    -28.004  0.0000E+00  0.2000E+01
    -27.873  0.0000E+00  0.2000E+01
    -27.741  0.0000E+00  0.2000E+01
    -27.609  0.0000E+00  0.2000E+01
    -27.478  0.0000E+00  0.2000E+01
    -27.346  0.0000E+00  0.2000E+01
    -27.214  0.0000E+00  0.2000E+01
    -27.083  0.0000E+00  0.2000E+01
    -26.951  0.0000E+00  0.2000E+01
    -26.819  0.0000E+00  0.2000E+01
    -26.688  0.0000E+00  0.2000E+01
    -26.556  0.0000E+00  0.2000E+01
    -26.424  0.0000E+00  0.2000E+01
    -26.293  0.0000E+00  0.2000E+01
    -26.161  0.0000E+00  0.2000E+01
    -26.029  0.0000E+00  0.2000E+01
    -25.898  0.0000E+00  0.2000E+01
    -25.766  0.0000E+00  0.2000E+01
    -25.634  0.0000E+00  0.2000E+01
    -25.503  0.0000E+00  0.2000E+01
    -25.371  0.0000E+00  0.2000E+01
    -25.239  0.0000E+00  0.2000E+01
    -25.108  0.0000E+00  0.2000E+01
    -24.976  0.0000E+00  0.2000E+01
    -24.844  0.0000E+00  0.2000E+01
    -24.713  0.0000E+00  0.2000E+01
    -24.581  0.0000E+00  0.2000E+01
    -24.449  0.0000E+00  0.2000E+01
    -24.318  0.0000E+00  0.2000E+01
    -24.186  0.0000E+00  0.2000E+01
    -24.054  0.0000E+00  0.2000E+01
    -23.923  0.0000E+00  0.2000E+01
    -23.791  0.0000E+00  0.2000E+01
    -23.659  0.0000E+00  0.2000E+01
    -23.527  0.0000E+00  0.2000E+01
    -23.396  0.0000E+00  0.2000E+01
    -23.264  0.0000E+00  0.2000E+01
    -23.132  0.0000E+00  0.2000E+01
    -23.001  0.0000E+00  0.2000E+01
    -22.869  0.0000E+00  0.2000E+01
    -22.737  0.0000E+00  0.2000E+01
    -22.606  0.0000E+00  0.2000E+01
    -22.474  0.8368E-08  0.2000E+01
    -22.342  0.3777E-01  0.2005E+01
    -22.211  0.4357E+01  0.2579E+01
    -22.079  0.9288E+01  0.3802E+01
    -21.947  0.4856E+01  0.4441E+01
    -21.816  0.1061E+02  0.5838E+01
    -21.684  0.5432E+01  0.6553E+01
    -21.552  0.7890E+01  0.7592E+01
    -21.421  0.1268E+02  0.9261E+01
    -21.289  0.5604E+01  0.9999E+01
    -21.157  0.3700E+01  0.1049E+02
    -21.026  0.8998E+01  0.1167E+02
    -20.894  0.1099E+02  0.1312E+02
    -20.762  0.1003E+02  0.1444E+02
    -20.631  0.8447E+01  0.1555E+02
    -20.499  0.1800E+00  0.1558E+02
    -20.367  0.1301E+02  0.1729E+02
    -20.236  0.4092E+01  0.1783E+02
    -20.104  0.1852E+02  0.2027E+02
    -19.972  0.1371E+01  0.2045E+02
    -19.841  0.3498E+01  0.2091E+02
    -19.709  0.1364E+02  0.2270E+02
    -19.577  0.8625E+01  0.2384E+02
    -19.446  0.6280E+01  0.2466E+02
    -19.314  0.6625E+01  0.2554E+02
    -19.182  0.1422E+02  0.2741E+02
    -19.051  0.7369E+01  0.2838E+02
    -18.919  0.4987E+01  0.2904E+02
    -18.787  0.5151E+01  0.2971E+02
    -18.655  0.5051E+01  0.3038E+02
    -18.524  0.1403E+02  0.3223E+02
    -18.392  0.1142E+02  0.3373E+02
    -18.260  0.8706E+01  0.3488E+02
    -18.129  0.4661E+01  0.3549E+02
    -17.997  0.1545E+02  0.3753E+02
    -17.865  0.4767E+01  0.3815E+02
    -17.734  0.3795E+01  0.3865E+02
    -17.602  0.5478E+01  0.3937E+02
    -17.470  0.1589E+02  0.4147E+02
    -17.339  0.4355E+01  0.4204E+02
    -17.207  0.2142E+02  0.4486E+02
    -17.075  0.6780E+01  0.4575E+02
    -16.944  0.3539E+01  0.4622E+02
    -16.812  0.8676E+01  0.4736E+02
    -16.680  0.4005E+01  0.4789E+02
    -16.549  0.9118E+01  0.4909E+02
    -16.417  0.8826E+01  0.5025E+02
    -16.285  0.3091E+01  0.5066E+02
    -16.154  0.9269E+01  0.5188E+02
    -16.022  0.5793E+01  0.5264E+02
    -15.890  0.1312E+02  0.5437E+02
    -15.759  0.1203E+02  0.5595E+02
    -15.627  0.2090E+01  0.5623E+02
    -15.495  0.4135E+01  0.5677E+02
    -15.364  0.2867E+01  0.5715E+02
    -15.232  0.1012E+02  0.5848E+02
    -15.100  0.2197E+02  0.6138E+02
    -14.969  0.4789E+01  0.6201E+02
    -14.837  0.1141E+02  0.6351E+02
    -14.705  0.1062E+02  0.6491E+02
    -14.574  0.6411E+01  0.6575E+02
    -14.442  0.1528E+02  0.6776E+02
    -14.310  0.5165E+01  0.6844E+02
    -14.178  0.1036E+01  0.6858E+02
    -14.047  0.4062E+01  0.6912E+02
    -13.915  0.9717E+01  0.7040E+02
    -13.783  0.1674E+02  0.7260E+02
    -13.652  0.1816E+02  0.7499E+02
    -13.520  0.1671E+01  0.7521E+02
    -13.388  0.2612E+01  0.7555E+02
    -13.257  0.4436E+00  0.7561E+02
    -13.125  0.1097E+02  0.7706E+02
    -12.993  0.1384E+02  0.7888E+02
    -12.862  0.2061E+02  0.8159E+02
    -12.730  0.1398E+01  0.8178E+02
    -12.598  0.4541E+01  0.8238E+02
    -12.467  0.1778E+02  0.8472E+02
    -12.335  0.1083E+02  0.8614E+02
    -12.203  0.3737E+01  0.8663E+02
    -12.072  0.2808E+01  0.8700E+02
    -11.940  0.1250E+02  0.8865E+02
    -11.808  0.3503E+01  0.8911E+02
    -11.677  0.1568E+02  0.9118E+02
    -11.545  0.1796E+02  0.9354E+02
    -11.413  0.1365E+02  0.9534E+02
    -11.282  0.8256E+01  0.9643E+02
    -11.150  0.5493E+01  0.9715E+02
    -11.018  0.8153E+01  0.9822E+02
    -10.887  0.1273E+02  0.9990E+02
    -10.755  0.1710E+02  0.1022E+03
    -10.623  0.1950E+01  0.1024E+03
    -10.492  0.2049E+02  0.1051E+03
    -10.360  0.4026E+01  0.1056E+03
    -10.228  0.2401E+02  0.1088E+03
    -10.097  0.2576E+02  0.1122E+03
     -9.965  0.1865E+02  0.1146E+03
     -9.833  0.1442E+02  0.1165E+03
     -9.702  0.1759E+02  0.1189E+03
     -9.570  0.2723E+02  0.1224E+03
     -9.438  0.2124E+02  0.1252E+03
     -9.306  0.2696E+02  0.1288E+03
     -9.175  0.2340E+02  0.1319E+03
     -9.043  0.2888E+02  0.1357E+03
     -8.911  0.1969E+02  0.1383E+03
     -8.780  0.1842E+02  0.1407E+03
     -8.648  0.2298E+02  0.1437E+03
     -8.516  0.1760E+02  0.1460E+03
     -8.385  0.1616E+02  0.1482E+03
     -8.253  0.1573E+02  0.1502E+03
     -8.121  0.1524E+02  0.1522E+03
     -7.990  0.2927E+02  0.1561E+03
     -7.858  0.1607E+02  0.1582E+03
     -7.726  0.1676E+02  0.1604E+03
     -7.595  0.7953E+01  0.1615E+03
     -7.463  0.2352E+01  0.1618E+03
     -7.331  0.1675E+02  0.1640E+03
     -7.200  0.3233E+02  0.1682E+03
     -7.068  0.1653E+02  0.1704E+03
     -6.936  0.4116E+01  0.1710E+03
     -6.805  0.1957E+02  0.1735E+03
     -6.673  0.1246E+02  0.1752E+03
     -6.541  0.1613E+02  0.1773E+03
     -6.410  0.7037E+01  0.1782E+03
     -6.278  0.1235E+02  0.1799E+03
     -6.146  0.1534E+02  0.1819E+03
     -6.015  0.1398E+02  0.1837E+03
     -5.883  0.1983E+02  0.1863E+03
     -5.751  0.7983E+01  0.1874E+03
     -5.620  0.1373E+02  0.1892E+03
     -5.488  0.3420E+01  0.1896E+03
     -5.356  0.7760E+01  0.1907E+03
     -5.225  0.8829E+01  0.1918E+03
     -5.093  0.1148E+02  0.1933E+03
     -4.961  0.1798E+02  0.1957E+03
     -4.830  0.1583E+02  0.1978E+03
     -4.698  0.3207E+01  0.1982E+03
     -4.566  0.1097E+00  0.1982E+03
     -4.434  0.2175E-04  0.1982E+03
     -4.303  0.2548E+01  0.1986E+03
     -4.171  0.1726E+02  0.2008E+03
     -4.039  0.5502E+01  0.2016E+03
     -3.908  0.1490E-02  0.2016E+03
     -3.776  0.3555E+00  0.2016E+03
     -3.644  0.2997E+01  0.2020E+03
     -3.513  0.2223E+00  0.2020E+03
     -3.381  0.4160E+01  0.2026E+03
     -3.249  0.1233E+02  0.2042E+03
     -3.118  0.1068E+02  0.2056E+03
     -2.986  0.3045E+01  0.2060E+03
     -2.854  0.2391E+01  0.2063E+03
     -2.723  0.9277E+01  0.2075E+03
     -2.591  0.1032E+00  0.2076E+03
     -2.459  0.7072E-01  0.2076E+03
     -2.328  0.3158E+01  0.2080E+03
     -2.196  0.2846E+01  0.2084E+03
     -2.064  0.6764E+00  0.2084E+03
     -1.933  0.8446E-05  0.2084E+03
     -1.801  0.1906E-07  0.2084E+03
     -1.669  0.1467E+00  0.2085E+03
     -1.538  0.9404E+01  0.2097E+03
     -1.406  0.1225E+02  0.2113E+03
     -1.274  0.3509E+01  0.2118E+03
     -1.143  0.1587E-03  0.2118E+03
     -1.011  0.9815E+00  0.2119E+03
     -0.879  0.1012E+02  0.2132E+03
     -0.748  0.2366E+02  0.2164E+03
     -0.616  0.1858E+02  0.2188E+03
     -0.484  0.5459E+01  0.2195E+03
     -0.353  0.2883E+00  0.2196E+03
     -0.221  0.4312E+01  0.2201E+03
     -0.089  0.1133E+02  0.2216E+03
      0.042  0.1050E+02  0.2230E+03
      0.174  0.9554E+00  0.2231E+03
      0.306  0.1566E+02  0.2252E+03
      0.438  0.8067E+01  0.2263E+03
      0.569  0.3064E+01  0.2267E+03
      0.701  0.1054E+02  0.2280E+03
      0.833  0.1725E+02  0.2303E+03
      0.964  0.6342E+01  0.2311E+03
      1.096  0.1071E+02  0.2326E+03
      1.228  0.1538E+02  0.2346E+03
      1.359  0.7710E+01  0.2356E+03
      1.491  0.1519E+02  0.2376E+03
      1.623  0.2306E+02  0.2406E+03
      1.754  0.1528E+02  0.2426E+03
      1.886  0.2774E+02  0.2463E+03
      2.018  0.8554E+01  0.2474E+03
      2.149  0.1568E+02  0.2495E+03
      2.281  0.2594E+02  0.2529E+03
      2.413  0.2906E+02  0.2567E+03
      2.544  0.8008E+01  0.2578E+03
      2.676  0.6136E+01  0.2586E+03
      2.808  0.8867E+01  0.2598E+03
      2.939  0.5393E+01  0.2605E+03
      3.071  0.9068E+01  0.2617E+03
      3.203  0.2752E+01  0.2620E+03
      3.334  0.4802E+01  0.2627E+03
      3.466  0.4016E-01  0.2627E+03
      3.598  0.2961E+01  0.2631E+03
      3.729  0.3787E+01  0.2636E+03
      3.861  0.1890E-02  0.2636E+03
      3.993  0.6415E-06  0.2636E+03
      4.124  0.2964E+00  0.2636E+03
      4.256  0.3049E+01  0.2640E+03
      4.388  0.3002E-01  0.2640E+03
      4.519  0.1854E-08  0.2640E+03
      4.651  0.0000E+00  0.2640E+03
      4.783  0.0000E+00  0.2640E+03
      4.914  0.0000E+00  0.2640E+03
      5.046  0.0000E+00  0.2640E+03
      5.178  0.0000E+00  0.2640E+03
      5.310  0.0000E+00  0.2640E+03
      5.441  0.0000E+00  0.2640E+03
      5.573  0.0000E+00  0.2640E+03
      5.705  0.0000E+00  0.2640E+03
      5.836  0.0000E+00  0.2640E+03
      5.968  0.0000E+00  0.2640E+03
