 running on   48 total cores
 distrk:  each k-point on   48 cores,    1 groups
 distr:  one band on    8 cores,    6 groups
 using from now: INCAR     
 vasp.5.4.4.18Apr17-6-g9f103f2a35 (build Aug 13 2022 23:40:43) complex          
  
 POSCAR found type information on POSCAR  C  O 
 POSCAR found :  2 types and      51 ions
 scaLAPACK will be used

 ----------------------------------------------------------------------------- 
|                                                                             |
|  ADVICE TO THIS USER RUNNING 'VASP/VAMP'   (HEAR YOUR MASTER'S VOICE ...):  |
|                                                                             |
|      You have a (more or less) 'large supercell' and for larger cells       |
|      it might be more efficient to use real space projection opertators     |
|      So try LREAL= Auto  in the INCAR   file.                               |
|      Mind:          For very  accurate calculation you might also keep the  |
|      reciprocal projection scheme          (i.e. LREAL=.FALSE.)             |
|                                                                             |
 ----------------------------------------------------------------------------- 

 LDA part: xc-table for Pade appr. of Perdew
 POSCAR found type information on POSCAR  C  O 
 POSCAR found :  2 types and      51 ions
 found WAVECAR, reading the header
  number of k-points has changed, file:     3 present:     5
  trying to continue reading WAVECAR, but it might fail
 POSCAR, INCAR and KPOINTS ok, starting setup
 FFT: planning ...
 reading WAVECAR
 the WAVECAR file was read successfully
 charge-density read from file: 1.00000000000000                        
 entering main loop
       N       E                     dE             d eps       ncg     rms          rms(c)
DAV:   1    -0.453292144946E+03   -0.45329E+03   -0.28413E+02  1356   0.217E+01    0.498E-01
RMM:   2    -0.454280105510E+03   -0.98796E+00   -0.99039E+00  1416   0.566E+00    0.204E-01
RMM:   3    -0.454332420993E+03   -0.52315E-01   -0.58575E-01  1574   0.110E+00    0.153E-01
RMM:   4    -0.454336290983E+03   -0.38700E-02   -0.40634E-02  1577   0.311E-01    0.151E-01
RMM:   5    -0.454336399319E+03   -0.10834E-03   -0.31855E-03  1511   0.906E-02    0.607E-02
RMM:   6    -0.454336425502E+03   -0.26183E-04   -0.49097E-04  1534   0.458E-02    0.148E-02
RMM:   7    -0.454336432713E+03   -0.72116E-05   -0.21790E-05  1032   0.110E-02
   1 F= -.45433643E+03 E0= -.45433637E+03  d E =-.117489E-03
