 vasp.5.4.4.18Apr17-6-g9f103f2a35 (build Aug 13 2022 23:40:43) complex          
  
 executed on             LinuxIFC date 2024.11.10  04:06:57
 running on   48 total cores
 distrk:  each k-point on   48 cores,    1 groups
 distr:  one band on NCORES_PER_BAND=   8 cores,    6 groups


--------------------------------------------------------------------------------------------------------


 INCAR:
 POTCAR:    PAW_PBE C 08Apr2002                   
 POTCAR:    PAW_PBE O 08Apr2002                   
 POTCAR:    PAW_PBE C 08Apr2002                   
   VRHFIN =C: s2p2                                                              
   LEXCH  = PE                                                                  
   EATOM  =   147.1560 eV,   10.8157 Ry                                         
                                                                                
   TITEL  = PAW_PBE C 08Apr2002                                                 
   LULTRA =        F    use ultrasoft PP ?                                      
   IUNSCR =        1    unscreen: 0-lin 1-nonlin 2-no                           
   RPACOR =    1.200    partial core radius                                     
   POMASS =   12.011; ZVAL   =    4.000    mass and valenz                      
   RCORE  =    1.500    outmost cutoff radius                                   
   RWIGS  =    1.630; RWIGS  =    0.863    wigner-seitz radius (au A)           
   ENMAX  =  400.000; ENMIN  =  300.000 eV                                      
   ICORE  =        2    local potential                                         
   LCOR   =        T    correct aug charges                                     
   LPAW   =        T    paw PP                                                  
   EAUG   =  644.873                                                            
   DEXC   =    0.000                                                            
   RMAX   =    1.529    core radius for proj-oper                               
   RAUG   =    1.300    factor for augmentation sphere                          
   RDEP   =    1.501    radius for radial grids                                 
   RDEPT  =    1.300    core radius for aug-charge                              
                                                                                
   Atomic configuration                                                         
    4 entries                                                                   
     n  l   j            E        occ.                                          
     1  0  0.50      -273.3789   2.0000                                         
     2  0  0.50       -13.7508   2.0000                                         
     2  1  0.50        -5.2854   2.0000                                         
     3  2  1.50        -5.4423   0.0000                                         
   Description                                                                  
     l       E           TYP  RCUT    TYP  RCUT                                 
     0    -13.7508458     23  1.200                                             
     0     -8.2022199     23  1.200                                             
     1     -5.2854383     23  1.500                                             
     1     34.0145650     23  1.500                                             
     2     -5.4423304      7  1.500                                             
  local pseudopotential read in
  partial core-charges read in
  partial kinetic energy density read in
  atomic valenz-charges read in
  non local Contribution for L=           0  read in
    real space projection operators read in
  non local Contribution for L=           0  read in
    real space projection operators read in
  non local Contribution for L=           1  read in
    real space projection operators read in
  non local Contribution for L=           1  read in
    real space projection operators read in
    PAW grid and wavefunctions read in
 
   number of l-projection  operators is LMAX  =           4
   number of lm-projection operators is LMMAX =           8
 
 POTCAR:    PAW_PBE O 08Apr2002                   
   VRHFIN =O: s2p4                                                              
   LEXCH  = PE                                                                  
   EATOM  =   432.3788 eV,   31.7789 Ry                                         
                                                                                
   TITEL  = PAW_PBE O 08Apr2002                                                 
   LULTRA =        F    use ultrasoft PP ?                                      
   IUNSCR =        1    unscreen: 0-lin 1-nonlin 2-no                           
   RPACOR =    1.200    partial core radius                                     
   POMASS =   16.000; ZVAL   =    6.000    mass and valenz                      
   RCORE  =    1.520    outmost cutoff radius                                   
   RWIGS  =    1.550; RWIGS  =    0.820    wigner-seitz radius (au A)           
   ENMAX  =  400.000; ENMIN  =  300.000 eV                                      
   ICORE  =        2    local potential                                         
   LCOR   =        T    correct aug charges                                     
   LPAW   =        T    paw PP                                                  
   EAUG   =  605.392                                                            
   DEXC   =    0.000                                                            
   RMAX   =    1.553    core radius for proj-oper                               
   RAUG   =    1.300    factor for augmentation sphere                          
   RDEP   =    1.550    radius for radial grids                                 
   RDEPT  =    1.329    core radius for aug-charge                              
                                                                                
   Atomic configuration                                                         
    4 entries                                                                   
     n  l   j            E        occ.                                          
     1  0  0.50      -514.6923   2.0000                                         
     2  0  0.50       -23.9615   2.0000                                         
     2  1  0.50        -9.0305   4.0000                                         
     3  2  1.50        -9.5241   0.0000                                         
   Description                                                                  
     l       E           TYP  RCUT    TYP  RCUT                                 
     0    -23.9615318     23  1.200                                             
     0     -9.5240782     23  1.200                                             
     1     -9.0304911     23  1.520                                             
     1      8.1634956     23  1.520                                             
     2     -9.5240782      7  1.500                                             
  local pseudopotential read in
  partial core-charges read in
  partial kinetic energy density read in
  kinetic energy density of atom read in
  atomic valenz-charges read in
  non local Contribution for L=           0  read in
    real space projection operators read in
  non local Contribution for L=           0  read in
    real space projection operators read in
  non local Contribution for L=           1  read in
    real space projection operators read in
  non local Contribution for L=           1  read in
    real space projection operators read in
    PAW grid and wavefunctions read in
 
   number of l-projection  operators is LMAX  =           4
   number of lm-projection operators is LMMAX =           8
 

 ----------------------------------------------------------------------------- 
|                                                                             |
|  ADVICE TO THIS USER RUNNING 'VASP/VAMP'   (HEAR YOUR MASTER'S VOICE ...):  |
|                                                                             |
|      You have a (more or less) 'large supercell' and for larger cells       |
|      it might be more efficient to use real space projection opertators     |
|      So try LREAL= Auto  in the INCAR   file.                               |
|      Mind:          For very  accurate calculation you might also keep the  |
|      reciprocal projection scheme          (i.e. LREAL=.FALSE.)             |
|                                                                             |
 ----------------------------------------------------------------------------- 

  PAW_PBE C 08Apr2002                   :
 energy of atom  1       EATOM= -147.1560
 kinetic energy error for atom=    0.0288 (will be added to EATOM!!)
  PAW_PBE O 08Apr2002                   :
 energy of atom  2       EATOM= -432.3788
 kinetic energy error for atom=    0.1156 (will be added to EATOM!!)
 
 
 POSCAR: generated by phonopy                    
  positions in direct lattice
  No initial velocities read in
 exchange correlation table for  LEXCH =        8
   RHO(1)=    0.500       N(1)  =     2000
   RHO(2)=  100.500       N(2)  =     4000

 VTST: version 3.2, (02/03/18)

 CHAIN: initializing optimizer
 
 OPT: Using VASP Dynamics algorithm
 CHAIN: Read ICHAIN            0
 
 POSCAR: generated by phonopy                    
  positions in direct lattice
  No initial velocities read in
 


--------------------------------------------------------------------------------------------------------


 ion  position               nearest neighbor table
   1  0.000  0.000  0.418-  26 1.42  30 1.42  46 1.42
   2  0.200  0.000  0.418-  27 1.41  26 1.42  47 1.42
   3  0.400  0.000  0.418-  28 1.42  48 1.42  27 1.43
   4  0.600  0.000  0.418-  29 1.42  28 1.42  49 1.42
   5  0.800  0.000  0.418-  30 1.42  29 1.42  50 1.42
   6  0.000  0.200  0.418-  31 1.42  35 1.42  26 1.42
   7  0.200  0.200  0.418-  32 1.42  31 1.42  27 1.42
   8  0.400  0.200  0.418-  33 1.42  32 1.42  28 1.42
   9  0.600  0.200  0.418-  34 1.42  33 1.42  29 1.42
  10  0.800  0.200  0.418-  35 1.42  34 1.42  30 1.42
  11  0.000  0.400  0.418-  36 1.42  40 1.42  31 1.42
  12  0.200  0.400  0.418-  37 1.42  36 1.42  32 1.42
  13  0.400  0.400  0.418-  51 1.00  38 1.42  37 1.42  33 1.42
  14  0.600  0.400  0.418-  39 1.42  38 1.42  34 1.42
  15  0.800  0.400  0.418-  40 1.42  39 1.42  35 1.42
  16  0.000  0.600  0.418-  41 1.42  45 1.42  36 1.42
  17  0.200  0.600  0.418-  42 1.42  41 1.42  37 1.42
  18  0.400  0.600  0.418-  43 1.42  42 1.42  38 1.42
  19  0.600  0.600  0.418-  44 1.42  43 1.42  39 1.42
  20  0.800  0.600  0.418-  45 1.42  44 1.42  40 1.42
  21  0.000  0.800  0.418-  46 1.42  50 1.42  41 1.42
  22  0.200  0.800  0.418-  47 1.42  46 1.42  42 1.42
  23  0.400  0.800  0.418-  48 1.42  47 1.42  43 1.42
  24  0.600  0.800  0.418-  49 1.42  48 1.42  44 1.42
  25  0.800  0.800  0.418-  50 1.42  49 1.42  45 1.42
  26  0.067  0.067  0.418-   1 1.42   2 1.42   6 1.42
  27  0.266  0.067  0.418-   2 1.41   7 1.42   3 1.43
  28  0.467  0.067  0.418-   3 1.42   4 1.42   8 1.42
  29  0.667  0.067  0.418-   4 1.42   5 1.42   9 1.42
  30  0.867  0.067  0.418-   5 1.42   1 1.42  10 1.42
  31  0.067  0.267  0.418-   6 1.42   7 1.42  11 1.42
  32  0.267  0.267  0.418-   7 1.42   8 1.42  12 1.42
  33  0.467  0.267  0.418-   8 1.42   9 1.42  13 1.42  51 1.74
  34  0.667  0.267  0.418-   9 1.42  10 1.42  14 1.42
  35  0.867  0.267  0.418-  10 1.42   6 1.42  15 1.42
  36  0.067  0.467  0.418-  11 1.42  12 1.42  16 1.42
  37  0.267  0.467  0.418-  12 1.42  13 1.42  17 1.42  51 1.74
  38  0.467  0.467  0.418-  13 1.42  14 1.42  18 1.42  51 1.74
  39  0.667  0.467  0.418-  14 1.42  15 1.42  19 1.42
  40  0.867  0.467  0.418-  15 1.42  11 1.42  20 1.42
  41  0.067  0.667  0.418-  16 1.42  17 1.42  21 1.42
  42  0.267  0.667  0.418-  17 1.42  18 1.42  22 1.42
  43  0.467  0.667  0.418-  18 1.42  19 1.42  23 1.42
  44  0.667  0.667  0.418-  19 1.42  20 1.42  24 1.42
  45  0.867  0.667  0.418-  20 1.42  16 1.42  25 1.42
  46  0.067  0.867  0.418-  21 1.42  22 1.42   1 1.42
  47  0.267  0.867  0.418-  22 1.42  23 1.42   2 1.42
  48  0.467  0.867  0.418-  23 1.42  24 1.42   3 1.42
  49  0.667  0.867  0.418-  24 1.42  25 1.42   4 1.42
  50  0.867  0.867  0.418-  25 1.42  21 1.42   5 1.42
  51  0.400  0.400  0.468-  13 1.00  38 1.74  37 1.74  33 1.74
 
  LATTYP: Found a hexagonal cell.
 ALAT       =    12.2999994816
 C/A-ratio  =     1.6260163287
  
  Lattice vectors:
  
 A1 = (   6.1499993860, -10.6521122225,   0.0000000000)
 A2 = ( -12.3000001905,   0.0000000000,   0.0000000000)
 A3 = (   0.0000000000,   0.0000000000, -20.0000000000)


Analysis of symmetry for initial positions (statically):
=====================================================================
 Subroutine PRICEL returns:
 Original cell was already a primitive cell.
 

 Routine SETGRP: Setting up the symmetry group for a 
 hexagonal supercell.


 Subroutine GETGRP returns: Found  1 space group operations
 (whereof  1 operations were pure point group operations)
 out of a pool of 24 trial point group operations.


The static configuration has the point symmetry C_1 .


Analysis of symmetry for dynamics (positions and initial velocities):
=====================================================================
 Subroutine PRICEL returns:
 Original cell was already a primitive cell.
 

 Routine SETGRP: Setting up the symmetry group for a 
 hexagonal supercell.


 Subroutine GETGRP returns: Found  1 space group operations
 (whereof  1 operations were pure point group operations)
 out of a pool of 24 trial point group operations.


The dynamic configuration has the point symmetry C_1 .


 Subroutine INISYM returns: Found  1 space group operations
 (whereof  1 operations are pure point group operations),
 and found     1 'primitive' translations

 
 
 KPOINTS: K-POINTS                                

Automatic generation of k-mesh.
Space group operators:
 irot       det(A)        alpha          n_x          n_y          n_z        tau_x        tau_y        tau_z
    1     1.000000     0.000000     1.000000     0.000000     0.000000     0.000000     0.000000     0.000000
 
 Subroutine IBZKPT returns following result:
 ===========================================
 
 Found      5 irreducible k-points:
 
 Following reciprocal coordinates:
            Coordinates               Weight
  0.000000  0.000000  0.000000      1.000000
  0.333333  0.000000  0.000000      2.000000
  0.000000  0.333333  0.000000      2.000000
  0.333333  0.333333  0.000000      2.000000
 -0.333333  0.333333  0.000000      2.000000
 
 Following cartesian coordinates:
            Coordinates               Weight
  0.000000  0.000000  0.000000      1.000000
  0.027100 -0.015646  0.000000      2.000000
  0.000000  0.031293  0.000000      2.000000
  0.027100  0.015646  0.000000      2.000000
 -0.027100  0.046939  0.000000      2.000000
 


--------------------------------------------------------------------------------------------------------




 Dimension of arrays:
   k-points           NKPTS =      5   k-points in BZ     NKDIM =      5   number of bands    NBANDS=    132
   number of dos      NEDOS =    301   number of ions     NIONS =     51
   non local maximal  LDIM  =      4   non local SUM 2l+1 LMDIM =      8
   total plane-waves  NPLWV = 896000
   max r-space proj   IRMAX =      1   max aug-charges    IRDMAX=  35685
   dimension x,y,z NGX =    80 NGY =   80 NGZ =  140
   dimension x,y,z NGXF=   160 NGYF=  160 NGZF=  280
   support grid    NGXF=   320 NGYF=  320 NGZF=  560
   ions per type =              50   1
   NGX,Y,Z   is equivalent  to a cutoff of  10.81, 10.81, 11.64 a.u.
   NGXF,Y,Z  is equivalent  to a cutoff of  21.63, 21.63, 23.27 a.u.

 SYSTEM =                                          
 POSCAR =  generated by phonopy                    

 Startparameter for this run:
   NWRITE =      2    write-flag & timer
   PREC   = accura    normal or accurate (medium, high low for compatibility)
   ISTART =      1    job   : 0-new  1-cont  2-samecut
   ICHARG =      1    charge: 1-file 2-atom 10-const
   ISPIN  =      1    spin polarized calculation?
   LNONCOLLINEAR =      F non collinear calculations
   LSORBIT =      F    spin-orbit coupling
   INIWAV =      1    electr: 0-lowe 1-rand  2-diag
   LASPH  =      F    aspherical Exc in radial PAW
   METAGGA=      F    non-selfconsistent MetaGGA calc.

 Electronic Relaxation 1
   ENCUT  =  400.0 eV  29.40 Ry    5.42 a.u.  20.06 20.06 32.61*2*pi/ulx,y,z
   ENINI  =  400.0     initial cutoff
   ENAUG  =  644.9 eV  augmentation charge cutoff
   NELM   =    300;   NELMIN=  2; NELMDL=  0     # of ELM steps 
   EDIFF  = 0.1E-04   stopping-criterion for ELM
   LREAL  =      F    real-space projection
   NLSPLINE    = F    spline interpolate recip. space projectors
   LCOMPAT=      F    compatible to vasp.4.4
   GGA_COMPAT  = T    GGA compatible to vasp.4.4-vasp.4.6
   LMAXPAW     = -100 max onsite density
   LMAXMIX     =    2 max onsite mixed and CHGCAR
   VOSKOWN=      0    Vosko Wilk Nusair interpolation
   ROPT   =    0.00000   0.00000
 Ionic relaxation
   EDIFFG = -.1E-02   stopping-criterion for IOM
   NSW    =      1    number of steps for IOM
   NBLOCK =      1;   KBLOCK =      1    inner block; outer block 
   IBRION =     -1    ionic relax: 0-MD 1-quasi-New 2-CG
   NFREE  =      0    steps in history (QN), initial steepest desc. (CG)
   ISIF   =      2    stress and relaxation
   IWAVPR =     10    prediction:  0-non 1-charg 2-wave 3-comb
   ISYM   =      2    0-nonsym 1-usesym 2-fastsym
   LCORR  =      T    Harris-Foulkes like correction to forces

   POTIM  = 0.5000    time-step for ionic-motion
   TEIN   =    0.0    initial temperature
   TEBEG  =    0.0;   TEEND  =   0.0 temperature during run
   SMASS  =  -3.00    Nose mass-parameter (am)
   estimated Nose-frequenzy (Omega)   =  0.10E-29 period in steps =****** mass=  -0.346E-26a.u.
   SCALEE = 1.0000    scale energy and forces
   NPACO  =    256;   APACO  = 16.0  distance and # of slots for P.C.
   PSTRESS=    0.0 pullay stress

  Mass of Ions in am
   POMASS =  12.01 16.00
  Ionic Valenz
   ZVAL   =   4.00  6.00
  Atomic Wigner-Seitz radii
   RWIGS  =  -1.00 -1.00
  virtual crystal weights 
   VCA    =   1.00  1.00
   NELECT =     206.0000    total number of electrons
   NUPDOWN=      -1.0000    fix difference up-down

 DOS related values:
   EMIN   =  10.00;   EMAX   =-10.00  energy-range for DOS
   EFERMI =   0.00
   ISMEAR =     0;   SIGMA  =   0.05  broadening in eV -4-tet -1-fermi 0-gaus

 Electronic relaxation 2 (details)
   IALGO  =     68    algorithm
   LDIAG  =      T    sub-space diagonalisation (order eigenvalues)
   LSUBROT=      F    optimize rotation matrix (better conditioning)
   TURBO    =      0    0=normal 1=particle mesh
   IRESTART =      0    0=no restart 2=restart with 2 vectors
   NREBOOT  =      0    no. of reboots
   NMIN     =      0    reboot dimension
   EREF     =   0.00    reference energy to select bands
   IMIX   =      4    mixing-type and parameters
     AMIX     =   0.40;   BMIX     =  1.00
     AMIX_MAG =   1.60;   BMIX_MAG =  1.00
     AMIN     =   0.10
     WC   =   100.;   INIMIX=   1;  MIXPRE=   1;  MAXMIX= -45

 Intra band minimization:
   WEIMIN = 0.0000     energy-eigenvalue tresh-hold
   EBREAK =  0.19E-07  absolut break condition
   DEPER  =   0.30     relativ break condition  

   TIME   =   0.40     timestep for ELM

  volume/ion in A,a.u.               =      51.38       346.73
  Fermi-wavevector in a.u.,A,eV,Ry     =   0.701305  1.325274  6.691736  0.491829
  Thomas-Fermi vector in A             =   1.785695
 
 Write flags
   LWAVE        =      F    write WAVECAR
   LDOWNSAMPLE  =      F    k-point downsampling of WAVECAR
   LCHARG       =      F    write CHGCAR
   LVTOT        =      F    write LOCPOT, total local potential
   LVHAR        =      F    write LOCPOT, Hartree potential only
   LELF         =      F    write electronic localiz. function (ELF)
   LORBIT       =      0    0 simple, 1 ext, 2 COOP (PROOUT), +10 PAW based schemes


 Dipole corrections
   LMONO  =      F    monopole corrections only (constant potential shift)
   LDIPOL =      F    correct potential (dipole corrections)
   IDIPOL =      0    1-x, 2-y, 3-z, 4-all directions 
   EPSILON=  1.0000000 bulk dielectric constant

 Exchange correlation treatment:
   GGA     =    --    GGA type
   LEXCH   =     8    internal setting for exchange type
   VOSKOWN=      0    Vosko Wilk Nusair interpolation
   LHFCALC =     F    Hartree Fock is set to
   LHFONE  =     F    Hartree Fock one center treatment
   AEXX    =    0.0000 exact exchange contribution

 Linear response parameters
   LEPSILON=     F    determine dielectric tensor
   LRPA    =     F    only Hartree local field effects (RPA)
   LNABLA  =     F    use nabla operator in PAW spheres
   LVEL    =     F    velocity operator in full k-point grid
   LINTERFAST=   F  fast interpolation
   KINTER  =     0    interpolate to denser k-point grid
   CSHIFT  =0.1000    complex shift for real part using Kramers Kronig
   OMEGAMAX=  -1.0    maximum frequency
   DEG_THRESHOLD= 0.2000000E-02 threshold for treating states as degnerate
   RTIME   =   -0.100 relaxation time in fs
  (WPLASMAI=    0.000 imaginary part of plasma frequency in eV, 0.658/RTIME)
   DFIELD  = 0.0000000 0.0000000 0.0000000 field for delta impulse in time
 
 Orbital magnetization related:
   ORBITALMAG=     F  switch on orbital magnetization
   LCHIMAG   =     F  perturbation theory with respect to B field
   DQ        =  0.001000  dq finite difference perturbation B field
   LLRAUG    =     F  two centre corrections for induced B field



--------------------------------------------------------------------------------------------------------


 Static calculation
 charge density and potential will be updated during run
 non-spin polarized calculation
 RMM-DIIS sequential band-by-band and
  variant of blocked Davidson during initial phase
 perform sub-space diagonalisation
    before iterative eigenvector-optimisation
 modified Broyden-mixing scheme, WC =      100.0
 initial mixing is a Kerker type mixing with AMIX =  0.4000 and BMIX =      1.0000
 Hartree-type preconditioning will be used
 using additional bands           29
 reciprocal scheme for non local part
 use partial core corrections
 calculate Harris-corrections to forces 
   (improved forces if not selfconsistent)
 use gradient corrections 
 use of overlap-Matrix (Vanderbilt PP)
 Gauss-broadening in eV      SIGMA  =   0.05


--------------------------------------------------------------------------------------------------------


  energy-cutoff  :      400.00
  volume of cell :     2620.42
      direct lattice vectors                 reciprocal lattice vectors
    12.300000191  0.000000000  0.000000000     0.081300812 -0.046939053  0.000000000
     6.150000804 10.652112223  0.000000000     0.000000000  0.093878095  0.000000000
     0.000000000  0.000000000 20.000000000     0.000000000  0.000000000  0.050000000

  length of vectors
    12.300000191 12.300000191 20.000000000     0.093878095  0.093878095  0.050000000


 
 old parameters found on file WAVECAR:
  energy-cutoff  :      400.00
  volume of cell :     2620.42
      direct lattice vectors                 reciprocal lattice vectors
    12.300000191  0.000000000  0.000000000     0.081300812 -0.046939053  0.000000000
     6.150000804 10.652112223  0.000000000     0.000000000  0.093878095  0.000000000
     0.000000000  0.000000000 20.000000000     0.000000000  0.000000000  0.050000000

  length of vectors

 
 k-points in units of 2pi/SCALE and weight: K-POINTS                                
   0.00000000  0.00000000  0.00000000       0.111
   0.02710027 -0.01564635  0.00000000       0.222
   0.00000000  0.03129270  0.00000000       0.222
   0.02710027  0.01564635  0.00000000       0.222
  -0.02710027  0.04693905  0.00000000       0.222
 
 k-points in reciprocal lattice and weights: K-POINTS                                
   0.00000000  0.00000000  0.00000000       0.111
   0.33333333  0.00000000  0.00000000       0.222
   0.00000000  0.33333333  0.00000000       0.222
   0.33333333  0.33333333  0.00000000       0.222
  -0.33333333  0.33333333  0.00000000       0.222
 
 position of ions in fractional coordinates (direct lattice) 
   0.00000000  0.00000000  0.41799748
   0.20000000  0.00000000  0.41799748
   0.40000000  0.00000000  0.41799748
   0.60000000  0.00000000  0.41799748
   0.80000000  0.00000000  0.41799748
   0.00000000  0.20000000  0.41799748
   0.20000000  0.20000000  0.41799748
   0.40000000  0.20000000  0.41799748
   0.60000000  0.20000000  0.41799748
   0.80000000  0.20000000  0.41799748
   0.00000000  0.40000000  0.41799748
   0.20000000  0.40000000  0.41799748
   0.40000000  0.40000000  0.41799748
   0.60000000  0.40000000  0.41799748
   0.80000000  0.40000000  0.41799748
   0.00000000  0.60000000  0.41799748
   0.20000000  0.60000000  0.41799748
   0.40000000  0.60000000  0.41799748
   0.60000000  0.60000000  0.41799748
   0.80000000  0.60000000  0.41799748
   0.00000000  0.80000000  0.41799748
   0.20000000  0.80000000  0.41799748
   0.40000000  0.80000000  0.41799748
   0.60000000  0.80000000  0.41799748
   0.80000000  0.80000000  0.41799748
   0.06666667  0.06666660  0.41800609
   0.26585366  0.06666660  0.41800609
   0.46666667  0.06666660  0.41800609
   0.66666667  0.06666660  0.41800609
   0.86666667  0.06666660  0.41800609
   0.06666667  0.26666660  0.41800609
   0.26666667  0.26666660  0.41800609
   0.46666667  0.26666660  0.41800609
   0.66666667  0.26666660  0.41800609
   0.86666667  0.26666660  0.41800609
   0.06666667  0.46666660  0.41800609
   0.26666667  0.46666660  0.41800609
   0.46666667  0.46666660  0.41800609
   0.66666667  0.46666660  0.41800609
   0.86666667  0.46666660  0.41800609
   0.06666667  0.66666660  0.41800609
   0.26666667  0.66666660  0.41800609
   0.46666667  0.66666660  0.41800609
   0.66666667  0.66666660  0.41800609
   0.86666667  0.66666660  0.41800609
   0.06666667  0.86666660  0.41800609
   0.26666667  0.86666660  0.41800609
   0.46666667  0.86666660  0.41800609
   0.66666667  0.86666660  0.41800609
   0.86666667  0.86666660  0.41800609
   0.40000000  0.40000000  0.46800609
 
 position of ions in cartesian coordinates  (Angst):
   0.00000000  0.00000000  8.35994958
   2.46000004  0.00000000  8.35994958
   4.92000008  0.00000000  8.35994958
   7.38000011  0.00000000  8.35994958
   9.84000015  0.00000000  8.35994958
   1.23000016  2.13042244  8.35994958
   3.69000020  2.13042244  8.35994958
   6.15000024  2.13042244  8.35994958
   8.61000028  2.13042244  8.35994958
  11.07000031  2.13042244  8.35994958
   2.46000032  4.26084489  8.35994958
   4.92000036  4.26084489  8.35994958
   7.38000040  4.26084489  8.35994958
   9.84000044  4.26084489  8.35994958
  12.30000047  4.26084489  8.35994958
   3.69000048  6.39126733  8.35994958
   6.15000052  6.39126733  8.35994958
   8.61000056  6.39126733  8.35994958
  11.07000060  6.39126733  8.35994958
  13.53000064  6.39126733  8.35994958
   4.92000064  8.52168978  8.35994958
   7.38000068  8.52168978  8.35994958
   9.84000072  8.52168978  8.35994958
  12.30000076  8.52168978  8.35994958
  14.76000080  8.52168978  8.35994958
   1.22999970  0.71014014  8.36012184
   3.67999974  0.71014014  8.36012184
   6.14999977  0.71014014  8.36012184
   8.60999981  0.71014014  8.36012184
  11.06999985  0.71014014  8.36012184
   2.45999986  2.84056258  8.36012184
   4.91999990  2.84056258  8.36012184
   7.37999994  2.84056258  8.36012184
   9.83999997  2.84056258  8.36012184
  12.30000001  2.84056258  8.36012184
   3.69000002  4.97098503  8.36012184
   6.15000006  4.97098503  8.36012184
   8.61000010  4.97098503  8.36012184
  11.07000013  4.97098503  8.36012184
  13.53000017  4.97098503  8.36012184
   4.92000018  7.10140747  8.36012184
   7.38000022  7.10140747  8.36012184
   9.84000026  7.10140747  8.36012184
  12.30000030  7.10140747  8.36012184
  14.76000033  7.10140747  8.36012184
   6.15000034  9.23182991  8.36012184
   8.61000038  9.23182991  8.36012184
  11.07000042  9.23182991  8.36012184
  13.53000046  9.23182991  8.36012184
  15.99000049  9.23182991  8.36012184
   7.38000040  4.26084489  9.36012184
 


--------------------------------------------------------------------------------------------------------


 k-point  1 :   0.0000 0.0000 0.0000  plane waves:   47639
 k-point  2 :   0.3333 0.0000 0.0000  plane waves:   47601
 k-point  3 :   0.0000 0.3333 0.0000  plane waves:   47601
 k-point  4 :   0.3333 0.3333 0.0000  plane waves:   47601
 k-point  5 :  -0.3333 0.3333 0.0000  plane waves:   47598

 maximum and minimum number of plane-waves per node :      5975     5928

 maximum number of plane-waves:     47639
 maximum index in each direction: 
   IXMAX=   20   IYMAX=   20   IZMAX=   32
   IXMIN=  -20   IYMIN=  -20   IZMIN=  -32


 parallel 3D FFT for wavefunctions:
    minimum data exchange during FFTs selected (reduces bandwidth)
 parallel 3D FFT for charge:
    minimum data exchange during FFTs selected (reduces bandwidth)


 total amount of memory used by VASP MPI-rank0    90113. kBytes
=======================================================================

   base      :      30000. kBytes
   nonl-proj :       8674. kBytes
   fftplans  :      26248. kBytes
   grid      :      14579. kBytes
   one-center:         21. kBytes
   wavefun   :      10591. kBytes
 
     INWAV:  cpu time    0.8503: real time    0.8508
 Broyden mixing: mesh for mixing (old mesh)
   NGX = 41   NGY = 41   NGZ = 65
  (NGX  =160   NGY  =160   NGZ  =280)
  gives a total of 109265 points

 initial charge density was supplied:
 number of electron     206.0000000 magnetization 
 keeping initial charge density in first step


--------------------------------------------------------------------------------------------------------


 Maximum index for augmentation-charges         1119 (set IRDMAX)


--------------------------------------------------------------------------------------------------------


 First call to EWALD:  gamma=   0.129
 Maximum number of real-space cells 3x 3x 2
 Maximum number of reciprocal cells 3x 3x 4

    FEWALD:  cpu time    0.0014: real time    0.0028


--------------------------------------- Iteration      1(   1)  ---------------------------------------


    POTLOK:  cpu time    0.1054: real time    0.1083
    SETDIJ:  cpu time    0.0824: real time    0.0837
     EDDAV:  cpu time    4.1015: real time    4.1080
       DOS:  cpu time    0.0004: real time    0.0004
    CHARGE:  cpu time    0.3924: real time    0.3925
    MIXING:  cpu time    0.0054: real time    0.0055
    --------------------------------------------
      LOOP:  cpu time    4.6876: real time    4.6984

 eigenvalue-minimisations  :  1356
 total energy-change (2. order) :-0.4532921E+03  (-0.2841272E+02)
 number of electron     206.0000000 magnetization 
 augmentation part        5.5093435 magnetization 

 Broyden mixing:
  rms(total) = 0.49835E-01    rms(broyden)= 0.49804E-01
  rms(prec ) = 0.51304E-01
  weight for this iteration     100.00

 Free energy of the ion-electron system (eV)
  ---------------------------------------------------
  alpha Z        PSCENC =        82.54348252
  Ewald energy   TEWEN  =     34516.49983244
  -Hartree energ DENC   =    -41034.80212535
  -exchange      EXHF   =         0.00000000
  -V(xc)+E(xc)   XCENC  =       721.38009826
  PAW double counting   =     22781.19595426   -22817.52509957
  entropy T*S    EENTRO =        -0.00049890
  eigenvalues    EBANDS =     -2491.20817824
  atomic energy  EATOM  =      7788.62438962
  Solvation  Ediel_sol  =         0.00000000
  ---------------------------------------------------
  free energy    TOTEN  =      -453.29214495 eV

  energy without entropy =     -453.29164605  energy(sigma->0) =     -453.29189550


--------------------------------------------------------------------------------------------------------




--------------------------------------- Iteration      1(   2)  ---------------------------------------


    POTLOK:  cpu time    0.0978: real time    0.0984
    SETDIJ:  cpu time    0.0797: real time    0.0812
    EDDIAG:  cpu time    0.8790: real time    0.8796
  RMM-DIIS:  cpu time    3.7591: real time    3.7638
    ORTHCH:  cpu time    0.0405: real time    0.0405
       DOS:  cpu time    0.0004: real time    0.0004
    CHARGE:  cpu time    0.3903: real time    0.3908
    MIXING:  cpu time    0.0041: real time    0.0041
    --------------------------------------------
      LOOP:  cpu time    5.2509: real time    5.2588

 eigenvalue-minimisations  :  1416
 total energy-change (2. order) :-0.9879606E+00  (-0.9903896E+00)
 number of electron     206.0000000 magnetization 
 augmentation part        5.5408853 magnetization 

 Broyden mixing:
  rms(total) = 0.20420E-01    rms(broyden)= 0.20365E-01
  rms(prec ) = 0.21794E-01
  weight for this iteration     100.00

 eigenvalues of (default mixing * dielectric matrix)
  average eigenvalue GAMMA=   0.7415
  0.7415

 Free energy of the ion-electron system (eV)
  ---------------------------------------------------
  alpha Z        PSCENC =        82.54348252
  Ewald energy   TEWEN  =     34516.49983244
  -Hartree energ DENC   =    -41032.27352722
  -exchange      EXHF   =         0.00000000
  -V(xc)+E(xc)   XCENC  =       721.27279722
  PAW double counting   =     22841.81675731   -22878.09461003
  entropy T*S    EENTRO =        -0.00009790
  eigenvalues    EBANDS =     -2494.66912947
  atomic energy  EATOM  =      7788.62438962
  Solvation  Ediel_sol  =         0.00000000
  ---------------------------------------------------
  free energy    TOTEN  =      -454.28010551 eV

  energy without entropy =     -454.28000761  energy(sigma->0) =     -454.28005656


--------------------------------------------------------------------------------------------------------




--------------------------------------- Iteration      1(   3)  ---------------------------------------


    POTLOK:  cpu time    0.0991: real time    0.0998
    SETDIJ:  cpu time    0.0801: real time    0.0811
    EDDIAG:  cpu time    0.8865: real time    0.8873
  RMM-DIIS:  cpu time    4.1365: real time    4.1409
    ORTHCH:  cpu time    0.0409: real time    0.0409
       DOS:  cpu time    0.0004: real time    0.0004
    CHARGE:  cpu time    0.3885: real time    0.3886
    MIXING:  cpu time    0.0048: real time    0.0048
    --------------------------------------------
      LOOP:  cpu time    5.6368: real time    5.6438

 eigenvalue-minimisations  :  1574
 total energy-change (2. order) :-0.5231548E-01  (-0.5857489E-01)
 number of electron     206.0000000 magnetization 
 augmentation part        5.5434194 magnetization 

 Broyden mixing:
  rms(total) = 0.15300E-01    rms(broyden)= 0.15286E-01
  rms(prec ) = 0.15859E-01
  weight for this iteration     100.00

 eigenvalues of (default mixing * dielectric matrix)
  average eigenvalue GAMMA=   0.6836
  0.6836  0.6836

 Free energy of the ion-electron system (eV)
  ---------------------------------------------------
  alpha Z        PSCENC =        82.54348252
  Ewald energy   TEWEN  =     34516.49983244
  -Hartree energ DENC   =    -41032.97145816
  -exchange      EXHF   =         0.00000000
  -V(xc)+E(xc)   XCENC  =       721.30535600
  PAW double counting   =     22830.57929505   -22866.87193636
  entropy T*S    EENTRO =        -0.00012876
  eigenvalues    EBANDS =     -2494.04125335
  atomic energy  EATOM  =      7788.62438962
  Solvation  Ediel_sol  =         0.00000000
  ---------------------------------------------------
  free energy    TOTEN  =      -454.33242099 eV

  energy without entropy =     -454.33229224  energy(sigma->0) =     -454.33235662


--------------------------------------------------------------------------------------------------------




--------------------------------------- Iteration      1(   4)  ---------------------------------------


    POTLOK:  cpu time    0.0971: real time    0.0980
    SETDIJ:  cpu time    0.0788: real time    0.0803
    EDDIAG:  cpu time    0.8760: real time    0.8768
  RMM-DIIS:  cpu time    4.1326: real time    4.1393
    ORTHCH:  cpu time    0.0407: real time    0.0409
       DOS:  cpu time    0.0004: real time    0.0004
    CHARGE:  cpu time    0.3884: real time    0.3888
    MIXING:  cpu time    0.0043: real time    0.0043
    --------------------------------------------
      LOOP:  cpu time    5.6183: real time    5.6288

 eigenvalue-minimisations  :  1577
 total energy-change (2. order) :-0.3869990E-02  (-0.4063424E-02)
 number of electron     206.0000000 magnetization 
 augmentation part        5.5459667 magnetization 

 Broyden mixing:
  rms(total) = 0.15109E-01    rms(broyden)= 0.15107E-01
  rms(prec ) = 0.15584E-01
  weight for this iteration     100.00

 eigenvalues of (default mixing * dielectric matrix)
  average eigenvalue GAMMA=   0.9844
  1.2021  1.2021  0.5490

 Free energy of the ion-electron system (eV)
  ---------------------------------------------------
  alpha Z        PSCENC =        82.54348252
  Ewald energy   TEWEN  =     34516.49983244
  -Hartree energ DENC   =    -41033.31222653
  -exchange      EXHF   =         0.00000000
  -V(xc)+E(xc)   XCENC  =       721.32065422
  PAW double counting   =     22821.88360399   -22858.18393748
  entropy T*S    EENTRO =        -0.00011133
  eigenvalues    EBANDS =     -2493.71197844
  atomic energy  EATOM  =      7788.62438962
  Solvation  Ediel_sol  =         0.00000000
  ---------------------------------------------------
  free energy    TOTEN  =      -454.33629098 eV

  energy without entropy =     -454.33617966  energy(sigma->0) =     -454.33623532


--------------------------------------------------------------------------------------------------------




--------------------------------------- Iteration      1(   5)  ---------------------------------------


    POTLOK:  cpu time    0.0975: real time    0.0978
    SETDIJ:  cpu time    0.0793: real time    0.0793
    EDDIAG:  cpu time    0.8802: real time    0.8807
  RMM-DIIS:  cpu time    3.9641: real time    3.9705
    ORTHCH:  cpu time    0.0408: real time    0.0409
       DOS:  cpu time    0.0004: real time    0.0004
    CHARGE:  cpu time    0.3895: real time    0.3898
    MIXING:  cpu time    0.0049: real time    0.0049
    --------------------------------------------
      LOOP:  cpu time    5.4566: real time    5.4643

 eigenvalue-minimisations  :  1511
 total energy-change (2. order) :-0.1083352E-03  (-0.3185534E-03)
 number of electron     206.0000000 magnetization 
 augmentation part        5.5449443 magnetization 

 Broyden mixing:
  rms(total) = 0.60652E-02    rms(broyden)= 0.60643E-02
  rms(prec ) = 0.62259E-02
  weight for this iteration     100.00

 eigenvalues of (default mixing * dielectric matrix)
  average eigenvalue GAMMA=   1.1597
  1.5163  1.5163  0.5648  1.0415

 Free energy of the ion-electron system (eV)
  ---------------------------------------------------
  alpha Z        PSCENC =        82.54348252
  Ewald energy   TEWEN  =     34516.49983244
  -Hartree energ DENC   =    -41034.22027168
  -exchange      EXHF   =         0.00000000
  -V(xc)+E(xc)   XCENC  =       721.35866509
  PAW double counting   =     22795.01784262   -22831.33784443
  entropy T*S    EENTRO =        -0.00011484
  eigenvalues    EBANDS =     -2492.82238066
  atomic energy  EATOM  =      7788.62438962
  Solvation  Ediel_sol  =         0.00000000
  ---------------------------------------------------
  free energy    TOTEN  =      -454.33639932 eV

  energy without entropy =     -454.33628448  energy(sigma->0) =     -454.33634190


--------------------------------------------------------------------------------------------------------




--------------------------------------- Iteration      1(   6)  ---------------------------------------


    POTLOK:  cpu time    0.0982: real time    0.0993
    SETDIJ:  cpu time    0.0795: real time    0.0810
    EDDIAG:  cpu time    0.8778: real time    0.8783
  RMM-DIIS:  cpu time    4.0269: real time    4.0374
    ORTHCH:  cpu time    0.0407: real time    0.0408
       DOS:  cpu time    0.0003: real time    0.0003
    CHARGE:  cpu time    0.3890: real time    0.3894
    MIXING:  cpu time    0.0041: real time    0.0041
    --------------------------------------------
      LOOP:  cpu time    5.5166: real time    5.5307

 eigenvalue-minimisations  :  1534
 total energy-change (2. order) :-0.2618324E-04  (-0.4909690E-04)
 number of electron     206.0000000 magnetization 
 augmentation part        5.5443267 magnetization 

 Broyden mixing:
  rms(total) = 0.14785E-02    rms(broyden)= 0.14768E-02
  rms(prec ) = 0.15372E-02
  weight for this iteration     100.00

 eigenvalues of (default mixing * dielectric matrix)
  average eigenvalue GAMMA=   1.2113
  2.1090  1.2174  1.2174  0.9488  0.5636

 Free energy of the ion-electron system (eV)
  ---------------------------------------------------
  alpha Z        PSCENC =        82.54348252
  Ewald energy   TEWEN  =     34516.49983244
  -Hartree energ DENC   =    -41034.88022175
  -exchange      EXHF   =         0.00000000
  -V(xc)+E(xc)   XCENC  =       721.38616669
  PAW double counting   =     22775.54927416   -22811.88256451
  entropy T*S    EENTRO =        -0.00011634
  eigenvalues    EBANDS =     -2492.17666834
  atomic energy  EATOM  =      7788.62438962
  Solvation  Ediel_sol  =         0.00000000
  ---------------------------------------------------
  free energy    TOTEN  =      -454.33642550 eV

  energy without entropy =     -454.33630916  energy(sigma->0) =     -454.33636733


--------------------------------------------------------------------------------------------------------




--------------------------------------- Iteration      1(   7)  ---------------------------------------


    POTLOK:  cpu time    0.0974: real time    0.0978
    SETDIJ:  cpu time    0.0798: real time    0.0798
    EDDIAG:  cpu time    0.8972: real time    0.8977
  RMM-DIIS:  cpu time    2.9080: real time    2.9169
    ORTHCH:  cpu time    0.0409: real time    0.0410
       DOS:  cpu time    0.0004: real time    0.0004
    --------------------------------------------
      LOOP:  cpu time    4.0237: real time    4.0335

 eigenvalue-minimisations  :  1032
 total energy-change (2. order) :-0.7211573E-05  (-0.2178963E-05)
 number of electron     206.0000000 magnetization 
 augmentation part        5.5443267 magnetization 

 Free energy of the ion-electron system (eV)
  ---------------------------------------------------
  alpha Z        PSCENC =        82.54348252
  Ewald energy   TEWEN  =     34516.49983244
  -Hartree energ DENC   =    -41034.88029602
  -exchange      EXHF   =         0.00000000
  -V(xc)+E(xc)   XCENC  =       721.38569887
  PAW double counting   =     22777.17025812   -22813.50261683
  entropy T*S    EENTRO =        -0.00011749
  eigenvalues    EBANDS =     -2492.17706394
  atomic energy  EATOM  =      7788.62438962
  Solvation  Ediel_sol  =         0.00000000
  ---------------------------------------------------
  free energy    TOTEN  =      -454.33643271 eV

  energy without entropy =     -454.33631522  energy(sigma->0) =     -454.33637397


--------------------------------------------------------------------------------------------------------




 average (electrostatic) potential at core
  the test charge radii are     0.6991  0.7215
  (the norm of the test charge is              1.0000)
       1 -58.2597       2 -58.2589       3 -58.2040       4 -58.0584       5 -58.2034
       6 -58.2602       7 -58.2750       8 -58.1318       9 -58.1324      10 -58.2756
      11 -58.2011      12 -58.1339      13 -60.6851      14 -58.1323      15 -58.2028
      16 -58.0576      17 -58.1323      18 -58.1333      19 -58.0573      20 -58.0648
      21 -58.2034      22 -58.2763      23 -58.2036      24 -58.0634      25 -58.0651
      26 -58.3814      27 -58.2920      28 -58.2212      29 -58.2212      30 -58.2918
      31 -58.2891      32 -58.3165      33 -58.8091      34 -58.3139      35 -58.2926
      36 -58.2209      37 -58.8111      38 -58.8114      39 -58.2211      40 -58.2222
      41 -58.2209      42 -58.3140      43 -58.2211      44 -58.1634      45 -58.1636
      46 -58.2933      47 -58.2937      48 -58.2201      49 -58.1623      50 -58.2230
      51 -81.5736
 
 
 
 E-fermi :  -3.0173     XC(G=0):  -2.2106     alpha+bet : -1.9409


 k-point     1 :       0.0000    0.0000    0.0000
  band No.  band energies     occupation 
      1     -31.7391      2.00000
      2     -22.2714      2.00000
      3     -21.5032      2.00000
      4     -21.5007      2.00000
      5     -21.3985      2.00000
      6     -21.3943      2.00000
      7     -21.3906      2.00000
      8     -20.8751      2.00000
      9     -19.8787      2.00000
     10     -19.8759      2.00000
     11     -19.5492      2.00000
     12     -19.5486      2.00000
     13     -19.5341      2.00000
     14     -19.1895      2.00000
     15     -18.9075      2.00000
     16     -18.8983      2.00000
     17     -18.6462      2.00000
     18     -18.6432      2.00000
     19     -18.6398      2.00000
     20     -17.8833      2.00000
     21     -17.0223      2.00000
     22     -17.0194      2.00000
     23     -16.4760      2.00000
     24     -16.4628      2.00000
     25     -16.4558      2.00000
     26     -16.0500      2.00000
     27     -15.9966      2.00000
     28     -15.9953      2.00000
     29     -15.4971      2.00000
     30     -15.4966      2.00000
     31     -15.4908      2.00000
     32     -15.0893      2.00000
     33     -14.6319      2.00000
     34     -14.6264      2.00000
     35     -14.1539      2.00000
     36     -14.1489      2.00000
     37     -14.1446      2.00000
     38     -13.9629      2.00000
     39     -12.9901      2.00000
     40     -12.9875      2.00000
     41     -12.0317      2.00000
     42     -11.7684      2.00000
     43     -11.7629      2.00000
     44     -11.7603      2.00000
     45     -11.6918      2.00000
     46     -11.6864      2.00000
     47     -11.6554      2.00000
     48     -11.6506      2.00000
     49     -11.6487      2.00000
     50     -11.6471      2.00000
     51     -10.8004      2.00000
     52     -10.7975      2.00000
     53     -10.4275      2.00000
     54     -10.3346      2.00000
     55     -10.2927      2.00000
     56     -10.2892      2.00000
     57     -10.2682      2.00000
     58     -10.0806      2.00000
     59      -9.6888      2.00000
     60      -9.6852      2.00000
     61      -9.3259      2.00000
     62      -9.3239      2.00000
     63      -9.3032      2.00000
     64      -9.2800      2.00000
     65      -9.2773      2.00000
     66      -9.0496      2.00000
     67      -9.0063      2.00000
     68      -9.0052      2.00000
     69      -8.9498      2.00000
     70      -8.9447      2.00000
     71      -8.9400      2.00000
     72      -8.9301      2.00000
     73      -8.9176      2.00000
     74      -8.9146      2.00000
     75      -8.8889      2.00000
     76      -8.4371      2.00000
     77      -7.8020      2.00000
     78      -7.7960      2.00000
     79      -7.3339      2.00000
     80      -7.3248      2.00000
     81      -7.3094      2.00000
     82      -7.3004      2.00000
     83      -7.2995      2.00000
     84      -7.2965      2.00000
     85      -7.1615      2.00000
     86      -7.1607      2.00000
     87      -7.1511      2.00000
     88      -6.7497      2.00000
     89      -6.5133      2.00000
     90      -6.5064      2.00000
     91      -6.2667      2.00000
     92      -6.2468      2.00000
     93      -6.2436      2.00000
     94      -5.9275      2.00000
     95      -5.9158      2.00000
     96      -5.1953      2.00000
     97      -4.7654      2.00000
     98      -4.7610      2.00000
     99      -4.2725      2.00000
    100      -4.2664      2.00000
    101      -4.2644      2.00000
    102      -3.2143      2.00000
    103      -3.2143      2.00000
    104      -2.9167      0.00441
    105      -1.4646      0.00000
    106      -1.4567      0.00000
    107      -1.4530      0.00000
    108      -0.9947      0.00000
    109      -0.9863      0.00000
    110      -0.5423      0.00000
    111       0.4131      0.00000
    112       0.4182      0.00000
    113       0.4225      0.00000
    114       0.5616      0.00000
    115       0.8441      0.00000
    116       0.8511      0.00000
    117       1.2909      0.00000
    118       1.3396      0.00000
    119       1.6811      0.00000
    120       1.8002      0.00000
    121       1.8011      0.00000
    122       1.8028      0.00000
    123       1.8266      0.00000
    124       1.8282      0.00000
    125       2.0312      0.00000
    126       2.1737      0.00000
    127       2.1793      0.00000
    128       2.1812      0.00000
    129       2.3456      0.00000
    130       2.3509      0.00000
    131       2.6383      0.00000
    132       2.6425      0.00000

 k-point     2 :       0.3333    0.0000    0.0000
  band No.  band energies     occupation 
      1     -31.7392      2.00000
      2     -22.1897      2.00000
      3     -21.8686      2.00000
      4     -21.6600      2.00000
      5     -21.4552      2.00000
      6     -21.0338      2.00000
      7     -20.8997      2.00000
      8     -20.7258      2.00000
      9     -20.4197      2.00000
     10     -20.1638      2.00000
     11     -19.7873      2.00000
     12     -19.6948      2.00000
     13     -19.3271      2.00000
     14     -19.2431      2.00000
     15     -19.0611      2.00000
     16     -18.5913      2.00000
     17     -18.4604      2.00000
     18     -18.1207      2.00000
     19     -18.0634      2.00000
     20     -17.5904      2.00000
     21     -17.4973      2.00000
     22     -17.3049      2.00000
     23     -17.2740      2.00000
     24     -16.8506      2.00000
     25     -16.6547      2.00000
     26     -16.1761      2.00000
     27     -15.9774      2.00000
     28     -15.8477      2.00000
     29     -15.2990      2.00000
     30     -15.1675      2.00000
     31     -15.1371      2.00000
     32     -14.8846      2.00000
     33     -14.7839      2.00000
     34     -14.4777      2.00000
     35     -14.4535      2.00000
     36     -13.7673      2.00000
     37     -13.7616      2.00000
     38     -13.1967      2.00000
     39     -13.0861      2.00000
     40     -12.9342      2.00000
     41     -12.9023      2.00000
     42     -12.5849      2.00000
     43     -12.5484      2.00000
     44     -12.3902      2.00000
     45     -12.0196      2.00000
     46     -11.6633      2.00000
     47     -11.4479      2.00000
     48     -11.2987      2.00000
     49     -11.1219      2.00000
     50     -10.9155      2.00000
     51     -10.8532      2.00000
     52     -10.5836      2.00000
     53     -10.5337      2.00000
     54     -10.2845      2.00000
     55     -10.2375      2.00000
     56     -10.1587      2.00000
     57     -10.0483      2.00000
     58      -9.8529      2.00000
     59      -9.8193      2.00000
     60      -9.6531      2.00000
     61      -9.6063      2.00000
     62      -9.5600      2.00000
     63      -9.5274      2.00000
     64      -9.3673      2.00000
     65      -9.3400      2.00000
     66      -9.2594      2.00000
     67      -9.1740      2.00000
     68      -9.0994      2.00000
     69      -9.0829      2.00000
     70      -8.8644      2.00000
     71      -8.7141      2.00000
     72      -8.6666      2.00000
     73      -8.5037      2.00000
     74      -8.4038      2.00000
     75      -8.2892      2.00000
     76      -8.1339      2.00000
     77      -8.0931      2.00000
     78      -8.0670      2.00000
     79      -7.9731      2.00000
     80      -7.8090      2.00000
     81      -7.6188      2.00000
     82      -7.3605      2.00000
     83      -7.3321      2.00000
     84      -7.2601      2.00000
     85      -7.1948      2.00000
     86      -6.9206      2.00000
     87      -6.8741      2.00000
     88      -6.6969      2.00000
     89      -6.5903      2.00000
     90      -6.3434      2.00000
     91      -6.1872      2.00000
     92      -6.0742      2.00000
     93      -5.9242      2.00000
     94      -5.7377      2.00000
     95      -5.6407      2.00000
     96      -5.3235      2.00000
     97      -5.1135      2.00000
     98      -4.9732      2.00000
     99      -4.9211      2.00000
    100      -4.2698      2.00000
    101      -4.1661      2.00000
    102      -3.3367      2.00000
    103      -3.1362      1.99922
    104      -2.8040      0.00000
    105      -1.5935      0.00000
    106      -1.4240      0.00000
    107      -0.8344      0.00000
    108      -0.8213      0.00000
    109      -0.7057      0.00000
    110      -0.6671      0.00000
    111      -0.1296      0.00000
    112      -0.0079      0.00000
    113       0.2959      0.00000
    114       0.7039      0.00000
    115       0.7278      0.00000
    116       1.0998      0.00000
    117       1.1757      0.00000
    118       1.3619      0.00000
    119       1.4622      0.00000
    120       1.5371      0.00000
    121       1.5704      0.00000
    122       1.6369      0.00000
    123       1.8303      0.00000
    124       1.9117      0.00000
    125       2.0365      0.00000
    126       2.2232      0.00000
    127       2.2712      0.00000
    128       2.3282      0.00000
    129       2.3396      0.00000
    130       2.3955      0.00000
    131       2.4571      0.00000
    132       2.7954      0.00000

 k-point     3 :       0.0000    0.3333    0.0000
  band No.  band energies     occupation 
      1     -31.7392      2.00000
      2     -22.1894      2.00000
      3     -21.8695      2.00000
      4     -21.6599      2.00000
      5     -21.4547      2.00000
      6     -21.0333      2.00000
      7     -20.8987      2.00000
      8     -20.7278      2.00000
      9     -20.4189      2.00000
     10     -20.1626      2.00000
     11     -19.7869      2.00000
     12     -19.6993      2.00000
     13     -19.3217      2.00000
     14     -19.2468      2.00000
     15     -19.0606      2.00000
     16     -18.5916      2.00000
     17     -18.4572      2.00000
     18     -18.1243      2.00000
     19     -18.0617      2.00000
     20     -17.5909      2.00000
     21     -17.4954      2.00000
     22     -17.3012      2.00000
     23     -17.2793      2.00000
     24     -16.8483      2.00000
     25     -16.6571      2.00000
     26     -16.1783      2.00000
     27     -15.9788      2.00000
     28     -15.8461      2.00000
     29     -15.2978      2.00000
     30     -15.1707      2.00000
     31     -15.1335      2.00000
     32     -14.8864      2.00000
     33     -14.7792      2.00000
     34     -14.4790      2.00000
     35     -14.4541      2.00000
     36     -13.7676      2.00000
     37     -13.7591      2.00000
     38     -13.1969      2.00000
     39     -13.0867      2.00000
     40     -12.9337      2.00000
     41     -12.9036      2.00000
     42     -12.5859      2.00000
     43     -12.5509      2.00000
     44     -12.3911      2.00000
     45     -12.0207      2.00000
     46     -11.6633      2.00000
     47     -11.4482      2.00000
     48     -11.2958      2.00000
     49     -11.1197      2.00000
     50     -10.9159      2.00000
     51     -10.8499      2.00000
     52     -10.5839      2.00000
     53     -10.5328      2.00000
     54     -10.2836      2.00000
     55     -10.2373      2.00000
     56     -10.1640      2.00000
     57     -10.0477      2.00000
     58      -9.8536      2.00000
     59      -9.8186      2.00000
     60      -9.6527      2.00000
     61      -9.6065      2.00000
     62      -9.5616      2.00000
     63      -9.5276      2.00000
     64      -9.3707      2.00000
     65      -9.3395      2.00000
     66      -9.2572      2.00000
     67      -9.1728      2.00000
     68      -9.0992      2.00000
     69      -9.0850      2.00000
     70      -8.8640      2.00000
     71      -8.7133      2.00000
     72      -8.6655      2.00000
     73      -8.5055      2.00000
     74      -8.4019      2.00000
     75      -8.2885      2.00000
     76      -8.1321      2.00000
     77      -8.0934      2.00000
     78      -8.0627      2.00000
     79      -7.9747      2.00000
     80      -7.8078      2.00000
     81      -7.6194      2.00000
     82      -7.3605      2.00000
     83      -7.3342      2.00000
     84      -7.2675      2.00000
     85      -7.1981      2.00000
     86      -6.9161      2.00000
     87      -6.8770      2.00000
     88      -6.6931      2.00000
     89      -6.5896      2.00000
     90      -6.3474      2.00000
     91      -6.1842      2.00000
     92      -6.0723      2.00000
     93      -5.9208      2.00000
     94      -5.7408      2.00000
     95      -5.6408      2.00000
     96      -5.3224      2.00000
     97      -5.1135      2.00000
     98      -4.9715      2.00000
     99      -4.9239      2.00000
    100      -4.2695      2.00000
    101      -4.1664      2.00000
    102      -3.3355      2.00000
    103      -3.1361      1.99922
    104      -2.8057      0.00000
    105      -1.5948      0.00000
    106      -1.4219      0.00000
    107      -0.8392      0.00000
    108      -0.8138      0.00000
    109      -0.7055      0.00000
    110      -0.6702      0.00000
    111      -0.1284      0.00000
    112      -0.0052      0.00000
    113       0.2916      0.00000
    114       0.7039      0.00000
    115       0.7266      0.00000
    116       1.0986      0.00000
    117       1.1739      0.00000
    118       1.3695      0.00000
    119       1.4628      0.00000
    120       1.5380      0.00000
    121       1.5679      0.00000
    122       1.6351      0.00000
    123       1.8311      0.00000
    124       1.9125      0.00000
    125       2.0433      0.00000
    126       2.2276      0.00000
    127       2.2744      0.00000
    128       2.3359      0.00000
    129       2.4265      0.00000
    130       2.7405      0.00000
    131       3.2542      0.00000
    132       3.6130      0.00000

 k-point     4 :       0.3333    0.3333    0.0000
  band No.  band energies     occupation 
      1     -31.7392      2.00000
      2     -22.1895      2.00000
      3     -21.8690      2.00000
      4     -21.6601      2.00000
      5     -21.4553      2.00000
      6     -21.0331      2.00000
      7     -20.8973      2.00000
      8     -20.7292      2.00000
      9     -20.4186      2.00000
     10     -20.1633      2.00000
     11     -19.7853      2.00000
     12     -19.6984      2.00000
     13     -19.3277      2.00000
     14     -19.2424      2.00000
     15     -19.0618      2.00000
     16     -18.5914      2.00000
     17     -18.4574      2.00000
     18     -18.1201      2.00000
     19     -18.0633      2.00000
     20     -17.5922      2.00000
     21     -17.4961      2.00000
     22     -17.3007      2.00000
     23     -17.2782      2.00000
     24     -16.8499      2.00000
     25     -16.6581      2.00000
     26     -16.1761      2.00000
     27     -15.9786      2.00000
     28     -15.8499      2.00000
     29     -15.2955      2.00000
     30     -15.1717      2.00000
     31     -15.1326      2.00000
     32     -14.8813      2.00000
     33     -14.7799      2.00000
     34     -14.4790      2.00000
     35     -14.4559      2.00000
     36     -13.7695      2.00000
     37     -13.7591      2.00000
     38     -13.1948      2.00000
     39     -13.0908      2.00000
     40     -12.9331      2.00000
     41     -12.9056      2.00000
     42     -12.5863      2.00000
     43     -12.5524      2.00000
     44     -12.3859      2.00000
     45     -12.0215      2.00000
     46     -11.6638      2.00000
     47     -11.4488      2.00000
     48     -11.2926      2.00000
     49     -11.1177      2.00000
     50     -10.9170      2.00000
     51     -10.8493      2.00000
     52     -10.5845      2.00000
     53     -10.5314      2.00000
     54     -10.2856      2.00000
     55     -10.2373      2.00000
     56     -10.1613      2.00000
     57     -10.0480      2.00000
     58      -9.8534      2.00000
     59      -9.8241      2.00000
     60      -9.6541      2.00000
     61      -9.6061      2.00000
     62      -9.5603      2.00000
     63      -9.5274      2.00000
     64      -9.3733      2.00000
     65      -9.3407      2.00000
     66      -9.2591      2.00000
     67      -9.1742      2.00000
     68      -9.0986      2.00000
     69      -9.0828      2.00000
     70      -8.8641      2.00000
     71      -8.7129      2.00000
     72      -8.6642      2.00000
     73      -8.5056      2.00000
     74      -8.3973      2.00000
     75      -8.2872      2.00000
     76      -8.1307      2.00000
     77      -8.0923      2.00000
     78      -8.0596      2.00000
     79      -7.9718      2.00000
     80      -7.8083      2.00000
     81      -7.6244      2.00000
     82      -7.3615      2.00000
     83      -7.3364      2.00000
     84      -7.2697      2.00000
     85      -7.1984      2.00000
     86      -6.9218      2.00000
     87      -6.8743      2.00000
     88      -6.6908      2.00000
     89      -6.5913      2.00000
     90      -6.3522      2.00000
     91      -6.1795      2.00000
     92      -6.0701      2.00000
     93      -5.9214      2.00000
     94      -5.7389      2.00000
     95      -5.6402      2.00000
     96      -5.3216      2.00000
     97      -5.1162      2.00000
     98      -4.9698      2.00000
     99      -4.9220      2.00000
    100      -4.2681      2.00000
    101      -4.1705      2.00000
    102      -3.3361      2.00000
    103      -3.1379      1.99935
    104      -2.8045      0.00000
    105      -1.5869      0.00000
    106      -1.4244      0.00000
    107      -0.8422      0.00000
    108      -0.8161      0.00000
    109      -0.7057      0.00000
    110      -0.6680      0.00000
    111      -0.1293      0.00000
    112      -0.0067      0.00000
    113       0.2919      0.00000
    114       0.7041      0.00000
    115       0.7257      0.00000
    116       1.0994      0.00000
    117       1.1752      0.00000
    118       1.3687      0.00000
    119       1.4640      0.00000
    120       1.5617      0.00000
    121       1.5797      0.00000
    122       1.7507      0.00000
    123       1.8315      0.00000
    124       2.1800      0.00000
    125       2.3346      0.00000
    126       2.3967      0.00000
    127       2.6136      0.00000
    128       2.7874      0.00000
    129       2.8456      0.00000
    130       3.2034      0.00000
    131       3.5938      0.00000
    132       4.1723      0.00000

 k-point     5 :      -0.3333    0.3333    0.0000
  band No.  band energies     occupation 
      1     -31.7393      2.00000
      2     -22.0823      2.00000
      3     -22.0064      2.00000
      4     -21.8004      2.00000
      5     -21.1740      2.00000
      6     -21.1495      2.00000
      7     -20.8658      2.00000
      8     -20.4144      2.00000
      9     -20.3380      2.00000
     10     -20.1733      2.00000
     11     -20.1517      2.00000
     12     -20.1407      2.00000
     13     -19.5654      2.00000
     14     -18.8250      2.00000
     15     -18.6744      2.00000
     16     -18.3748      2.00000
     17     -18.3519      2.00000
     18     -18.3329      2.00000
     19     -17.9301      2.00000
     20     -17.8004      2.00000
     21     -17.5979      2.00000
     22     -17.2613      2.00000
     23     -17.1569      2.00000
     24     -17.1201      2.00000
     25     -16.5436      2.00000
     26     -16.4367      2.00000
     27     -16.2838      2.00000
     28     -15.8073      2.00000
     29     -15.6285      2.00000
     30     -15.1761      2.00000
     31     -14.9678      2.00000
     32     -14.6545      2.00000
     33     -13.9611      2.00000
     34     -13.9391      2.00000
     35     -13.9244      2.00000
     36     -13.8722      2.00000
     37     -13.8614      2.00000
     38     -13.7934      2.00000
     39     -13.6739      2.00000
     40     -13.4934      2.00000
     41     -13.0368      2.00000
     42     -12.4754      2.00000
     43     -12.2550      2.00000
     44     -12.0693      2.00000
     45     -11.8241      2.00000
     46     -11.7747      2.00000
     47     -11.5655      2.00000
     48     -11.5452      2.00000
     49     -11.5205      2.00000
     50     -10.9287      2.00000
     51     -10.8164      2.00000
     52     -10.5290      2.00000
     53     -10.2099      2.00000
     54     -10.2007      2.00000
     55     -10.1920      2.00000
     56     -10.0964      2.00000
     57     -10.0522      2.00000
     58     -10.0210      2.00000
     59      -9.9042      2.00000
     60      -9.7508      2.00000
     61      -9.7493      2.00000
     62      -9.5655      2.00000
     63      -9.4399      2.00000
     64      -9.4091      2.00000
     65      -9.1961      2.00000
     66      -9.0444      2.00000
     67      -9.0321      2.00000
     68      -8.9002      2.00000
     69      -8.8813      2.00000
     70      -8.6875      2.00000
     71      -8.6407      2.00000
     72      -8.6357      2.00000
     73      -8.6225      2.00000
     74      -8.5823      2.00000
     75      -8.3735      2.00000
     76      -8.2539      2.00000
     77      -8.1677      2.00000
     78      -8.0354      2.00000
     79      -7.9831      2.00000
     80      -7.8807      2.00000
     81      -7.8593      2.00000
     82      -7.8534      2.00000
     83      -7.2192      2.00000
     84      -7.1835      2.00000
     85      -7.1276      2.00000
     86      -6.8882      2.00000
     87      -6.7210      2.00000
     88      -6.6175      2.00000
     89      -6.4543      2.00000
     90      -6.2665      2.00000
     91      -6.1026      2.00000
     92      -5.9186      2.00000
     93      -5.9135      2.00000
     94      -5.8944      2.00000
     95      -5.4503      2.00000
     96      -5.4260      2.00000
     97      -5.1219      2.00000
     98      -5.0187      2.00000
     99      -4.9769      2.00000
    100      -4.9571      2.00000
    101      -3.7318      2.00000
    102      -3.4575      2.00000
    103      -3.2797      2.00000
    104      -2.3874      0.00000
    105      -2.2257      0.00000
    106      -0.9253      0.00000
    107      -0.8833      0.00000
    108      -0.8649      0.00000
    109      -0.5409      0.00000
    110      -0.2634      0.00000
    111      -0.2104      0.00000
    112       0.2481      0.00000
    113       0.2571      0.00000
    114       0.2629      0.00000
    115       0.6018      0.00000
    116       0.7923      0.00000
    117       0.9462      0.00000
    118       0.9744      0.00000
    119       1.0616      0.00000
    120       1.7332      0.00000
    121       1.7410      0.00000
    122       1.7695      0.00000
    123       1.8256      0.00000
    124       2.1160      0.00000
    125       2.1244      0.00000
    126       2.1282      0.00000
    127       2.2459      0.00000
    128       2.2472      0.00000
    129       2.3614      0.00000
    130       2.9983      0.00000
    131       3.0141      0.00000
    132       3.0382      0.00000


--------------------------------------------------------------------------------------------------------


 soft charge-density along one line, spin component           1
         0         1         2         3         4         5         6         7         8         9
 total charge-density along one line
 
 pseudopotential strength for first ion, spin component:           1
 10.222  13.594   0.000  -0.000   0.000  -0.000   0.000  -0.000
 13.594  18.076   0.000  -0.000   0.000  -0.000   0.000  -0.000
  0.000   0.000  -4.352  -0.000  -0.000   8.512   0.000   0.000
 -0.000  -0.000  -0.000  -4.344  -0.000   0.000   8.502   0.000
  0.000   0.000  -0.000  -0.000  -4.352   0.000   0.000   8.513
 -0.000  -0.000   8.512   0.000   0.000 -18.786  -0.000  -0.000
  0.000   0.000   0.000   8.502   0.000  -0.000 -18.776  -0.000
 -0.000  -0.000   0.000   0.000   8.513  -0.000  -0.000 -18.787
 total augmentation occupancy for first ion, spin component:           1
  8.358  -3.741   0.001   0.000   0.003   0.000   0.000   0.001
 -3.741   1.730  -0.001  -0.000  -0.003  -0.000   0.000  -0.000
  0.001  -0.001   1.840  -0.000  -0.001   0.174   0.000   0.000
  0.000  -0.000  -0.000   1.223  -0.000   0.000   0.078   0.000
  0.003  -0.003  -0.001  -0.000   1.839   0.000   0.000   0.174
  0.000  -0.000   0.174   0.000   0.000   0.018   0.000   0.000
  0.000   0.000   0.000   0.078   0.000   0.000   0.005   0.000
  0.001  -0.000   0.000   0.000   0.174   0.000   0.000   0.018


------------------------ aborting loop because EDIFF is reached ----------------------------------------


    CHARGE:  cpu time    0.4091: real time    0.4096
    FORLOC:  cpu time    0.0277: real time    0.0277
    FORNL :  cpu time    1.9605: real time    1.9636
    STRESS:  cpu time    3.2987: real time    3.3007
    FORCOR:  cpu time    0.1201: real time    0.1201
    FORHAR:  cpu time    0.0491: real time    0.0491
    MIXING:  cpu time    0.0036: real time    0.0036
    OFIELD:  cpu time    0.0001: real time    0.0001

  FORCE on cell =-STRESS in cart. coord.  units (eV):
  Direction    XX          YY          ZZ          XY          YZ          ZX
  --------------------------------------------------------------------------------------
  Alpha Z    82.54348    82.54348    82.54348
  Ewald   41234.52801 41234.42749-47952.47633     2.12141    -0.03619    -0.02016
  Hartree 40516.68308 40516.59900-39998.59858     0.22635    -0.03230    -0.02001
  E(xc)    -777.15548  -777.15561  -804.23515     0.00694    -0.00003     0.00002
  Local  -83988.84621-83988.67621 85337.39852    -1.91412     0.06725     0.04099
  n-local  -203.93342  -203.93414  -194.69264     0.02017    -0.00095     0.00024
  augment   -12.38128   -12.38045   -14.04734    -0.00425     0.00018    -0.00001
  Kinetic  3164.12832  3164.12323  3596.27796    -0.34038     0.00718    -0.00044
  Fock        0.00000     0.00000     0.00000     0.00000     0.00000     0.00000
  -------------------------------------------------------------------------------------
  Total      15.56651    15.54680    52.16991     0.11612     0.00514     0.00064
  in kB       9.51768     9.50563    31.89773     0.07100     0.00314     0.00039
  external pressure =       16.97 kB  Pullay stress =        0.00 kB


 VOLUME and BASIS-vectors are now :
 -----------------------------------------------------------------------------
  energy-cutoff  :      400.00
  volume of cell :     2620.42
      direct lattice vectors                 reciprocal lattice vectors
    12.300000191  0.000000000  0.000000000     0.081300812 -0.046939053  0.000000000
     6.150000804 10.652112223  0.000000000     0.000000000  0.093878095  0.000000000
     0.000000000  0.000000000 20.000000000     0.000000000  0.000000000  0.050000000

  length of vectors
    12.300000191 12.300000191 20.000000000     0.093878095  0.093878095  0.050000000


 FORCES acting on ions
    electron-ion (+dipol)            ewald-force                    non-local-force                 convergence-correction
 -----------------------------------------------------------------------------------------------
   -.138E+01 -.823E+00 0.279E+01   0.126E+01 0.754E+00 -.278E+01   0.826E-01 0.476E-01 -.220E-03   0.469E-03 0.134E-02 0.694E-03
   0.232E+01 0.107E+00 0.279E+01   -.237E+01 -.279E+00 -.278E+01   -.136E+00 0.712E-01 -.367E-03   0.200E-02 0.190E-02 0.149E-04
   0.454E+01 0.547E+01 0.381E+01   -.475E+01 -.545E+01 -.377E+01   -.161E+00 0.539E-01 -.720E-01   -.959E-05 0.119E-02 0.188E-03
   0.965E-01 0.128E+02 0.480E+01   -.910E-01 -.131E+02 -.494E+01   -.323E-02 0.146E-01 0.111E+00   -.466E-03 0.376E-02 0.332E-04
   -.366E+01 0.642E+01 0.381E+01   0.371E+01 -.649E+01 -.377E+01   0.113E+00 0.767E-01 -.712E-01   -.818E-03 0.312E-02 0.449E-03
   0.133E+00 0.157E+01 0.279E+01   -.133E+00 -.142E+01 -.278E+01   -.120E-04 -.104E+00 -.261E-03   0.113E-02 -.126E-02 0.403E-03
   0.108E+02 0.674E+01 0.489E+01   -.105E+02 -.655E+01 -.494E+01   0.213E-01 0.613E-01 0.527E-01   -.122E-02 0.213E-03 -.650E-04
   0.210E+02 0.364E+02 0.186E+02   -.216E+02 -.372E+02 -.190E+02   0.639E+00 0.659E+00 0.546E+00   0.185E-02 0.364E-02 0.105E-02
   -.208E+02 0.363E+02 0.186E+02   0.214E+02 -.371E+02 -.190E+02   -.636E+00 0.653E+00 0.545E+00   -.340E-02 0.364E-02 0.208E-03
   -.116E+02 0.672E+01 0.489E+01   0.113E+02 -.653E+01 -.494E+01   -.107E+00 0.624E-01 0.523E-01   -.135E-02 0.528E-03 -.170E-04
   0.738E+01 -.563E-01 0.381E+01   -.747E+01 0.413E-01 -.377E+01   0.697E-02 -.128E+00 -.713E-01   0.227E-02 -.643E-03 0.363E-03
   0.418E+02 0.369E-02 0.186E+02   -.428E+02 -.417E-01 -.190E+02   0.883E+00 0.216E+00 0.545E+00   0.330E-02 0.206E-02 -.293E-03
   0.177E-01 0.237E-01 0.291E+03   -.153E-01 -.266E-01 -.346E+03   0.282E-03 0.761E-03 0.713E+01   -.185E-02 -.113E-02 0.712E-02
   -.418E+02 -.403E-01 0.186E+02   0.428E+02 -.643E-04 -.190E+02   -.886E+00 0.226E+00 0.546E+00   -.395E-02 -.631E-03 -.499E-03
   -.740E+01 -.347E-01 0.381E+01   0.747E+01 0.265E-01 -.377E+01   -.102E-01 -.139E+00 -.712E-01   -.119E-02 0.110E-03 0.539E-03
   0.111E+02 -.643E+01 0.480E+01   -.113E+02 0.655E+01 -.494E+01   0.118E-01 -.644E-02 0.111E+00   0.334E-02 -.234E-02 -.387E-03
   0.210E+02 -.362E+02 0.186E+02   -.214E+02 0.371E+02 -.190E+02   0.248E+00 -.880E+00 0.545E+00   0.901E-03 -.393E-02 0.939E-04
   -.210E+02 -.362E+02 0.186E+02   0.214E+02 0.371E+02 -.190E+02   -.248E+00 -.880E+00 0.545E+00   -.207E-02 -.167E-03 0.147E-03
   -.111E+02 -.645E+01 0.480E+01   0.113E+02 0.656E+01 -.494E+01   -.120E-01 -.695E-02 0.112E+00   -.356E-02 -.113E-02 -.772E-04
   0.243E-02 -.150E+01 0.282E+01   -.418E-02 0.158E+01 -.278E+01   -.155E-03 -.855E-01 -.149E-01   0.763E-03 -.258E-02 0.594E-03
   0.374E+01 -.640E+01 0.381E+01   -.377E+01 0.647E+01 -.377E+01   0.126E+00 0.613E-01 -.713E-01   0.184E-02 -.293E-02 0.481E-03
   0.217E-01 -.134E+02 0.489E+01   -.193E-01 0.130E+02 -.494E+01   0.316E-02 -.120E+00 0.525E-01   0.791E-03 -.229E-02 0.120E-03
   -.381E+01 -.641E+01 0.381E+01   0.384E+01 0.649E+01 -.377E+01   -.133E+00 0.598E-01 -.708E-01   -.317E-02 -.873E-03 0.489E-04
   -.126E+01 0.675E+00 0.282E+01   0.133E+01 -.713E+00 -.278E+01   -.703E-01 0.380E-01 -.149E-01   -.998E-03 0.135E-02 0.460E-03
   0.131E+01 0.727E+00 0.282E+01   -.137E+01 -.765E+00 -.278E+01   0.773E-01 0.424E-01 -.149E-01   0.182E-02 0.555E-03 0.686E-03
   0.293E+00 -.119E-02 0.250E+01   -.319E+00 0.115E-03 -.250E+01   -.267E-01 0.409E-02 -.102E-01   0.193E-02 0.350E-03 0.320E-03
   0.300E+01 0.401E+01 0.340E+01   -.248E+01 -.423E+01 -.337E+01   0.216E+00 0.494E-02 -.237E-01   -.414E-02 0.170E-02 -.870E-04
   0.637E+01 0.171E+02 0.687E+01   -.613E+01 -.171E+02 -.650E+01   -.914E-01 0.156E+00 -.120E+00   0.165E-02 0.168E-02 0.375E-03
   -.602E+01 0.171E+02 0.688E+01   0.576E+01 -.171E+02 -.650E+01   0.644E-01 0.160E+00 -.121E+00   -.691E-03 0.384E-02 0.276E-03
   -.526E+01 0.407E+01 0.341E+01   0.509E+01 -.429E+01 -.338E+01   0.693E-01 0.396E-02 -.239E-01   -.350E-03 0.211E-02 0.469E-03
   0.618E+01 0.237E+01 0.341E+01   -.626E+01 -.210E+01 -.338E+01   -.541E-01 -.393E-01 -.238E-01   0.350E-02 -.623E-03 0.264E-03
   0.283E+02 0.165E+02 0.126E+02   -.286E+02 -.167E+02 -.131E+02   -.180E+00 -.115E+00 0.145E+00   0.145E-02 0.914E-03 0.221E-03
   0.353E-01 0.878E+02 0.586E+02   -.449E-01 -.923E+02 -.663E+02   -.317E-03 -.641E+00 0.330E+01   0.252E-02 0.506E-02 0.131E-02
   -.283E+02 0.163E+02 0.126E+02   0.286E+02 -.165E+02 -.131E+02   0.158E+00 -.917E-01 0.145E+00   -.308E-02 0.126E-02 -.165E-04
   -.614E+01 0.253E+01 0.341E+01   0.624E+01 -.227E+01 -.338E+01   0.328E-01 -.641E-01 -.239E-01   -.177E-02 -.313E-03 0.494E-03
   0.179E+02 -.331E+01 0.688E+01   -.177E+02 0.349E+01 -.650E+01   0.109E+00 -.137E+00 -.121E+00   0.244E-02 -.122E-02 -.206E-03
   0.760E+02 -.439E+02 0.586E+02   -.799E+02 0.461E+02 -.663E+02   -.555E+00 0.317E+00 0.331E+01   0.433E-02 -.802E-03 0.264E-02
   -.760E+02 -.439E+02 0.586E+02   0.799E+02 0.461E+02 -.663E+02   0.552E+00 0.320E+00 0.331E+01   -.351E-02 -.460E-02 0.433E-03
   -.179E+02 -.332E+01 0.688E+01   0.177E+02 0.350E+01 -.650E+01   -.107E+00 -.137E+00 -.121E+00   -.197E-02 -.118E-02 -.224E-04
   0.513E-02 -.636E+00 0.293E+01   -.199E-02 0.874E+00 -.290E+01   -.255E-02 -.152E+00 -.524E-01   0.799E-03 -.253E-02 0.347E-03
   0.118E+02 -.138E+02 0.688E+01   -.119E+02 0.135E+02 -.650E+01   0.172E+00 -.229E-01 -.121E+00   0.373E-02 -.270E-02 0.322E-03
   0.365E-02 -.327E+02 0.126E+02   -.199E-02 0.330E+02 -.131E+02   0.504E-03 0.184E+00 0.145E+00   -.972E-03 -.220E-02 -.122E-03
   -.118E+02 -.138E+02 0.688E+01   0.119E+02 0.136E+02 -.650E+01   -.173E+00 -.233E-01 -.122E+00   -.231E-02 -.109E-02 0.127E-03
   -.384E+01 -.224E+01 0.282E+01   0.378E+01 0.221E+01 -.286E+01   -.192E-01 -.129E-01 0.130E-01   -.253E-02 -.162E-02 0.566E-03
   0.385E+01 -.223E+01 0.282E+01   -.379E+01 0.220E+01 -.286E+01   0.197E-01 -.109E-01 0.130E-01   0.303E-02 -.247E-02 0.280E-03
   0.912E+00 -.660E+01 0.341E+01   -.119E+01 0.656E+01 -.338E+01   0.391E-01 0.594E-01 -.239E-01   0.176E-02 -.303E-02 0.458E-03
   -.898E+00 -.647E+01 0.341E+01   0.118E+01 0.640E+01 -.338E+01   -.369E-01 0.656E-01 -.238E-01   -.392E-03 -.139E-02 0.831E-04
   -.548E+00 0.145E+00 0.293E+01   0.763E+00 -.221E+00 -.290E+01   -.133E+00 0.713E-01 -.517E-01   -.244E-02 0.845E-03 0.146E-03
   0.386E-01 0.440E+01 0.282E+01   -.449E-01 -.433E+01 -.286E+01   0.781E-03 0.236E-01 0.127E-01   -.792E-03 0.320E-02 0.376E-03
   0.550E+00 0.304E+00 0.293E+01   -.760E+00 -.422E+00 -.290E+01   0.133E+00 0.772E-01 -.524E-01   0.182E-02 -.307E-04 0.527E-03
   0.283E-01 0.282E-01 -.722E+03   -.205E-01 -.362E-01 0.846E+03   -.710E-03 0.139E-01 -.638E+02   -.632E-02 -.735E-03 -.167E-01
 -----------------------------------------------------------------------------------------------
   0.775E-02 -.625E-02 0.440E+02   0.356E-13 0.206E-13 -.682E-12   -.202E-02 0.847E-02 -.440E+02   -.588E-02 -.205E-02 0.521E-02
 
 
 POSITION                                       TOTAL-FORCE (eV/Angst)
 -----------------------------------------------------------------------------------
      0.00000      0.00000      8.35995        -0.043292     -0.020285      0.009343
      2.46000      0.00000      8.35995        -0.177623     -0.098904      0.009361
      4.92000      0.00000      8.35995        -0.373994      0.075688     -0.025740
      7.38000      0.00000      8.35995         0.001877     -0.215485     -0.026977
      9.84000      0.00000      8.35995         0.159488      0.014355     -0.026148
      1.23000      2.13042      8.35995         0.001209      0.043160      0.009392
      3.69000      2.13042      8.35995         0.325325      0.247054     -0.000035
      6.15000      2.13042      8.35995         0.100002     -0.192441      0.164305
      8.61000      2.13042      8.35995        -0.090998     -0.204942      0.165164
     11.07000      2.13042      8.35995        -0.426526      0.245790      0.000036
      2.46000      4.26084      8.35995        -0.073595     -0.143597     -0.026123
      4.92000      4.26084      8.35995        -0.138628      0.180068      0.165323
      7.38000      4.26084      8.35995         0.000798     -0.003282    -48.160319
      9.84000      4.26084      8.35995         0.129001      0.184681      0.164947
     12.30000      4.26084      8.35995         0.067245     -0.146921     -0.026032
      3.69000      6.39127      8.35995        -0.178646      0.104159     -0.026944
      6.15000      6.39127      8.35995        -0.224994      0.019958      0.164915
      8.61000      6.39127      8.35995         0.224715      0.022824      0.165555
     11.07000      6.39127      8.35995         0.179661      0.101300     -0.027067
     13.53000      6.39127      8.35995        -0.001142     -0.013364      0.017836
      4.92000      8.52169      8.35995         0.096386      0.130996     -0.025921
      7.38000      8.52169      8.35995         0.006358     -0.491022     -0.000044
      9.84000      8.52169      8.35995        -0.112382      0.132149     -0.026098
     12.30000      8.52169      8.35995        -0.002651      0.001977      0.017879
     14.76000      8.52169      8.35995         0.016425      0.005203      0.017762
      1.23000      0.71014      8.36012        -0.050481      0.003360     -0.006148
      3.68000      0.71014      8.36012         0.725974     -0.208511      0.010156
      6.15000      0.71014      8.36012         0.146769      0.247317      0.257439
      8.61000      0.71014      8.36012        -0.195304      0.250489      0.256733
     11.07000      0.71014      8.36012        -0.100121     -0.215865      0.010100
      2.46000      2.84056      8.36012        -0.131787      0.223754      0.010193
      4.92000      2.84056      8.36012        -0.435255     -0.282624     -0.355558
      7.38000      2.84056      8.36012        -0.007406     -5.078915     -4.350826
      9.84000      2.84056      8.36012         0.438455     -0.254989     -0.355162
     12.30000      2.84056      8.36012         0.135759      0.194936      0.010051
      3.69000      4.97099      8.36012         0.314239      0.042746      0.256983
      6.15000      4.97099      8.36012        -4.392781      2.537723     -4.347774
      8.61000      4.97099      8.36012         4.395666      2.536269     -4.347400
     11.07000      4.97099      8.36012        -0.314107      0.045505      0.257202
     13.53000      4.97099      8.36012         0.001399      0.083838     -0.022063
      4.92000      7.10141      8.36012         0.118696     -0.293861      0.257040
      7.38000      7.10141      8.36012         0.001192      0.508648     -0.355285
      9.84000      7.10141      8.36012        -0.121497     -0.294613      0.256697
     12.30000      7.10141      8.36012        -0.080439     -0.045328     -0.026463
     14.76000      7.10141      8.36012         0.082377     -0.046182     -0.026436
      6.15000      9.23183      8.36012        -0.240611      0.022395      0.010111
      8.61000      9.23183      8.36012         0.246257     -0.011065      0.010094
     11.07000      9.23183      8.36012         0.079510     -0.004453     -0.022073
     13.53000      9.23183      8.36012        -0.006286      0.096207     -0.026422
     15.99000      9.23183      8.36012        -0.074987     -0.041044     -0.022059
      7.38000      4.26084      9.36012         0.000752      0.005143     59.986499
 -----------------------------------------------------------------------------------
    total drift:                               -0.000144      0.000168     -0.000579


--------------------------------------------------------------------------------------------------------



  FREE ENERGIE OF THE ION-ELECTRON SYSTEM (eV)
  ---------------------------------------------------
  free  energy   TOTEN  =      -454.33643271 eV

  energy  without entropy=     -454.33631522  energy(sigma->0) =     -454.33637397
 


--------------------------------------------------------------------------------------------------------


    POTLOK:  cpu time    0.1779: real time    0.1779


--------------------------------------------------------------------------------------------------------


 stress matrix after NEB project (eV)
     15.56651      0.11612      0.00064
      0.11612     15.54680      0.00514
      0.00064      0.00514     52.16991
  FORCES: max atom, RMS    59.986500   10.897443
  FORCE total and by dimension   77.823313   59.986499
  Stress total and by dimension   56.619305   52.169910
     LOOP+:  cpu time   42.3276: real time   42.4057
    4ORBIT:  cpu time    0.0000: real time    0.0000

 total amount of memory used by VASP MPI-rank0    90113. kBytes
=======================================================================

   base      :      30000. kBytes
   nonl-proj :       8674. kBytes
   fftplans  :      26248. kBytes
   grid      :      14579. kBytes
   one-center:         21. kBytes
   wavefun   :      10591. kBytes
 
  
  
 General timing and accounting informations for this job:
 ========================================================
  
                  Total CPU time used (sec):       49.960
                            User time (sec):       46.715
                          System time (sec):        3.245
                         Elapsed time (sec):       50.120
  
                   Maximum memory used (kb):      365104.
                   Average memory used (kb):           0.
  
                          Minor page faults:       104085
                          Major page faults:            0
                 Voluntary context switches:         1145
