  30  30   0   0
  0.2453841E+02  0.6380631E-09  0.6380631E-09  0.2087900E-08  0.5000000E-15
  1.000000000000000E-004
  CAR 
                                         
      6.05531131    -23.28669565  301      1.25470800      1.00000000
    -23.287  0.0000E+00  0.0000E+00
    -23.189  0.0000E+00  0.0000E+00
    -23.091  0.0000E+00  0.0000E+00
    -22.993  0.0000E+00  0.0000E+00
    -22.895  0.0000E+00  0.0000E+00
    -22.798  0.0000E+00  0.0000E+00
    -22.700  0.0000E+00  0.0000E+00
    -22.602  0.0000E+00  0.0000E+00
    -22.504  0.0000E+00  0.0000E+00
    -22.406  0.0000E+00  0.0000E+00
    -22.309  0.0000E+00  0.0000E+00
    -22.211  0.1958E-12  0.1916E-13
    -22.113  0.4616E-05  0.4515E-06
    -22.015  0.8133E-01  0.7955E-02
    -21.917  0.3006E+01  0.3019E+00
    -21.820  0.3270E+01  0.6217E+00
    -21.722  0.1981E+01  0.8155E+00
    -21.624  0.1573E+01  0.9693E+00
    -21.526  0.1348E+01  0.1101E+01
    -21.428  0.1200E+01  0.1219E+01
    -21.331  0.1093E+01  0.1325E+01
    -21.233  0.1010E+01  0.1424E+01
    -21.135  0.1585E+01  0.1579E+01
    -21.037  0.3850E+01  0.1956E+01
    -20.939  0.2654E+01  0.2215E+01
    -20.842  0.2417E+01  0.2452E+01
    -20.744  0.2388E+01  0.2685E+01
    -20.646  0.2038E+01  0.2885E+01
    -20.548  0.1876E+01  0.3068E+01
    -20.450  0.1751E+01  0.3239E+01
    -20.352  0.1649E+01  0.3401E+01
    -20.255  0.1567E+01  0.3554E+01
    -20.157  0.1496E+01  0.3700E+01
    -20.059  0.1432E+01  0.3840E+01
    -19.961  0.1375E+01  0.3975E+01
    -19.863  0.1325E+01  0.4104E+01
    -19.766  0.1282E+01  0.4230E+01
    -19.668  0.1246E+01  0.4352E+01
    -19.570  0.1227E+01  0.4472E+01
    -19.472  0.2610E+01  0.4727E+01
    -19.374  0.4478E+01  0.5165E+01
    -19.277  0.3041E+01  0.5462E+01
    -19.179  0.2533E+01  0.5710E+01
    -19.081  0.2289E+01  0.5934E+01
    -18.983  0.2167E+01  0.6146E+01
    -18.885  0.2066E+01  0.6348E+01
    -18.788  0.1916E+01  0.6536E+01
    -18.690  0.2961E+01  0.6825E+01
    -18.592  0.7417E+01  0.7551E+01
    -18.494  0.4671E+01  0.8008E+01
    -18.396  0.3673E+01  0.8367E+01
    -18.299  0.3258E+01  0.8685E+01
    -18.201  0.3127E+01  0.8991E+01
    -18.103  0.2882E+01  0.9273E+01
    -18.005  0.2637E+01  0.9531E+01
    -17.907  0.2669E+01  0.9792E+01
    -17.810  0.2535E+01  0.1004E+02
    -17.712  0.2337E+01  0.1027E+02
    -17.614  0.2569E+01  0.1052E+02
    -17.516  0.2340E+01  0.1075E+02
    -17.418  0.1949E+01  0.1094E+02
    -17.320  0.2080E+01  0.1114E+02
    -17.223  0.1839E+01  0.1132E+02
    -17.125  0.1954E+01  0.1151E+02
    -17.027  0.1871E+01  0.1170E+02
    -16.929  0.1828E+01  0.1188E+02
    -16.831  0.1796E+01  0.1205E+02
    -16.734  0.1753E+01  0.1222E+02
    -16.636  0.1702E+01  0.1239E+02
    -16.538  0.1770E+01  0.1256E+02
    -16.440  0.1727E+01  0.1273E+02
    -16.342  0.1680E+01  0.1290E+02
    -16.245  0.1633E+01  0.1306E+02
    -16.147  0.1625E+01  0.1321E+02
    -16.049  0.1678E+01  0.1338E+02
    -15.951  0.1672E+01  0.1354E+02
    -15.853  0.1446E+01  0.1368E+02
    -15.756  0.1727E+01  0.1385E+02
    -15.658  0.1478E+01  0.1400E+02
    -15.560  0.1726E+01  0.1417E+02
    -15.462  0.1367E+01  0.1430E+02
    -15.364  0.1750E+01  0.1447E+02
    -15.267  0.1591E+01  0.1463E+02
    -15.169  0.1639E+01  0.1479E+02
    -15.071  0.2784E+01  0.1506E+02
    -14.973  0.2911E+01  0.1534E+02
    -14.875  0.2571E+01  0.1559E+02
    -14.778  0.3010E+01  0.1589E+02
    -14.680  0.1411E+01  0.1603E+02
    -14.582  0.1146E+01  0.1614E+02
    -14.484  0.2281E+01  0.1636E+02
    -14.386  0.5095E+01  0.1686E+02
    -14.288  0.3643E+01  0.1722E+02
    -14.191  0.4852E+01  0.1769E+02
    -14.093  0.4021E+01  0.1808E+02
    -13.995  0.5335E+01  0.1861E+02
    -13.897  0.4632E+01  0.1906E+02
    -13.799  0.3918E+01  0.1944E+02
    -13.702  0.4742E+01  0.1991E+02
    -13.604  0.6775E+01  0.2057E+02
    -13.506  0.5682E+01  0.2112E+02
    -13.408  0.5687E+01  0.2168E+02
    -13.310  0.5687E+01  0.2224E+02
    -13.213  0.1040E+02  0.2325E+02
    -13.115  0.9153E+01  0.2415E+02
    -13.017  0.7925E+01  0.2492E+02
    -12.919  0.8741E+01  0.2578E+02
    -12.821  0.1375E+02  0.2712E+02
    -12.724  0.1750E+02  0.2884E+02
    -12.626  0.2488E+02  0.3127E+02
    -12.528  0.1245E+02  0.3249E+02
    -12.430  0.2908E+02  0.3533E+02
    -12.332  0.2095E+02  0.3738E+02
    -12.235  0.9235E+01  0.3828E+02
    -12.137  0.3502E+01  0.3863E+02
    -12.039  0.3170E+01  0.3894E+02
    -11.941  0.2938E+01  0.3922E+02
    -11.843  0.2834E+01  0.3950E+02
    -11.746  0.2682E+01  0.3976E+02
    -11.648  0.2777E+01  0.4004E+02
    -11.550  0.2464E+01  0.4028E+02
    -11.452  0.2712E+01  0.4054E+02
    -11.354  0.2339E+01  0.4077E+02
    -11.256  0.2587E+01  0.4102E+02
    -11.159  0.2293E+01  0.4125E+02
    -11.061  0.2518E+01  0.4149E+02
    -10.963  0.2289E+01  0.4172E+02
    -10.865  0.2318E+01  0.4194E+02
    -10.767  0.2409E+01  0.4218E+02
    -10.670  0.2155E+01  0.4239E+02
    -10.572  0.2491E+01  0.4263E+02
    -10.474  0.1983E+01  0.4283E+02
    -10.376  0.2518E+01  0.4307E+02
    -10.278  0.1923E+01  0.4326E+02
    -10.181  0.2370E+01  0.4349E+02
    -10.083  0.2098E+01  0.4370E+02
     -9.985  0.2186E+01  0.4391E+02
     -9.887  0.2260E+01  0.4413E+02
     -9.789  0.2118E+01  0.4434E+02
     -9.692  0.4356E+01  0.4477E+02
     -9.594  0.5161E+01  0.4527E+02
     -9.496  0.6284E+01  0.4589E+02
     -9.398  0.1046E+02  0.4691E+02
     -9.300  0.6989E+01  0.4759E+02
     -9.203  0.6019E+01  0.4818E+02
     -9.105  0.5849E+01  0.4875E+02
     -9.007  0.6144E+01  0.4936E+02
     -8.909  0.3040E+01  0.4965E+02
     -8.811  0.2362E+01  0.4988E+02
     -8.713  0.3706E+01  0.5025E+02
     -8.616  0.5278E+01  0.5076E+02
     -8.518  0.6690E+01  0.5142E+02
     -8.420  0.5161E+01  0.5192E+02
     -8.322  0.4670E+01  0.5238E+02
     -8.224  0.4993E+01  0.5287E+02
     -8.127  0.4447E+01  0.5330E+02
     -8.029  0.4830E+01  0.5377E+02
     -7.931  0.3971E+01  0.5416E+02
     -7.833  0.4546E+01  0.5461E+02
     -7.735  0.3940E+01  0.5499E+02
     -7.638  0.4178E+01  0.5540E+02
     -7.540  0.4149E+01  0.5581E+02
     -7.442  0.3868E+01  0.5619E+02
     -7.344  0.4204E+01  0.5660E+02
     -7.246  0.4130E+01  0.5700E+02
     -7.149  0.4503E+01  0.5744E+02
     -7.051  0.4163E+01  0.5785E+02
     -6.953  0.4473E+01  0.5829E+02
     -6.855  0.4481E+01  0.5872E+02
     -6.757  0.4098E+01  0.5912E+02
     -6.660  0.3843E+01  0.5950E+02
     -6.562  0.3449E+01  0.5984E+02
     -6.464  0.4809E+01  0.6031E+02
     -6.366  0.6669E+01  0.6096E+02
     -6.268  0.6180E+01  0.6156E+02
     -6.171  0.9610E+01  0.6250E+02
     -6.073  0.1667E+02  0.6413E+02
     -5.975  0.1486E+02  0.6559E+02
     -5.877  0.1365E+02  0.6692E+02
     -5.779  0.1287E+02  0.6818E+02
     -5.681  0.1458E+02  0.6961E+02
     -5.584  0.1403E+02  0.7098E+02
     -5.486  0.1614E+02  0.7256E+02
     -5.388  0.2281E+02  0.7479E+02
     -5.290  0.2895E+02  0.7762E+02
     -5.192  0.2712E+02  0.8027E+02
     -5.095  0.1523E+02  0.8176E+02
     -4.997  0.9647E+01  0.8271E+02
     -4.899  0.8362E+01  0.8353E+02
     -4.801  0.6868E+01  0.8420E+02
     -4.703  0.7060E+01  0.8489E+02
     -4.606  0.6379E+01  0.8551E+02
     -4.508  0.9912E+01  0.8648E+02
     -4.410  0.2382E+02  0.8881E+02
     -4.312  0.2114E+02  0.9088E+02
     -4.214  0.2499E+02  0.9332E+02
     -4.117  0.1724E+02  0.9501E+02
     -4.019  0.1576E+02  0.9655E+02
     -3.921  0.1437E+02  0.9795E+02
     -3.823  0.7298E+01  0.9867E+02
     -3.725  0.6706E+01  0.9932E+02
     -3.628  0.1340E+02  0.1006E+03
     -3.530  0.3489E+02  0.1040E+03
     -3.432  0.1946E+02  0.1060E+03
     -3.334  0.1061E+02  0.1070E+03
     -3.236  0.1004E+02  0.1080E+03
     -3.139  0.8493E+01  0.1088E+03
     -3.041  0.9699E+01  0.1098E+03
     -2.943  0.1291E+02  0.1110E+03
     -2.845  0.1002E+02  0.1120E+03
     -2.747  0.7151E+01  0.1127E+03
     -2.649  0.6916E+01  0.1134E+03
     -2.552  0.9069E+01  0.1143E+03
     -2.454  0.9524E+01  0.1152E+03
     -2.356  0.1727E+02  0.1169E+03
     -2.258  0.2981E+02  0.1198E+03
     -2.160  0.2004E+02  0.1218E+03
     -2.063  0.1446E+02  0.1232E+03
     -1.965  0.1175E+02  0.1243E+03
     -1.867  0.1343E+02  0.1256E+03
     -1.769  0.1139E+02  0.1267E+03
     -1.671  0.1264E+02  0.1280E+03
     -1.574  0.1498E+02  0.1294E+03
     -1.476  0.1659E+02  0.1311E+03
     -1.378  0.1541E+02  0.1326E+03
     -1.280  0.8763E+01  0.1334E+03
     -1.182  0.1901E+02  0.1353E+03
     -1.085  0.2016E+02  0.1373E+03
     -0.987  0.1205E+02  0.1384E+03
     -0.889  0.1256E+02  0.1397E+03
     -0.791  0.6070E+01  0.1403E+03
     -0.693  0.4596E+01  0.1407E+03
     -0.596  0.4624E+01  0.1412E+03
     -0.498  0.7282E+01  0.1419E+03
     -0.400  0.6560E+01  0.1425E+03
     -0.302  0.1039E+01  0.1426E+03
     -0.204  0.9048E+00  0.1427E+03
     -0.107  0.6506E+00  0.1428E+03
     -0.009  0.9894E+00  0.1429E+03
      0.089  0.6372E+00  0.1429E+03
      0.187  0.8315E+00  0.1430E+03
      0.285  0.8443E+00  0.1431E+03
      0.383  0.6353E+00  0.1432E+03
      0.480  0.9250E+00  0.1432E+03
      0.578  0.6589E+00  0.1433E+03
      0.676  0.8167E+00  0.1434E+03
      0.774  0.8028E+00  0.1435E+03
      0.872  0.7000E+00  0.1435E+03
      0.969  0.8369E+00  0.1436E+03
      1.067  0.7637E+00  0.1437E+03
      1.165  0.7453E+00  0.1438E+03
      1.263  0.2646E+01  0.1440E+03
      1.361  0.2714E+01  0.1443E+03
      1.458  0.5339E+01  0.1448E+03
      1.556  0.1153E+02  0.1459E+03
      1.654  0.1000E+02  0.1469E+03
      1.752  0.2785E+02  0.1496E+03
      1.850  0.1982E+02  0.1516E+03
      1.947  0.7868E+01  0.1524E+03
      2.045  0.2181E+02  0.1545E+03
      2.143  0.1661E+02  0.1561E+03
      2.241  0.2050E+02  0.1581E+03
      2.339  0.2955E+02  0.1610E+03
      2.436  0.1518E+02  0.1625E+03
      2.534  0.1224E+02  0.1637E+03
      2.632  0.1326E+02  0.1650E+03
      2.730  0.9299E+01  0.1659E+03
      2.828  0.6828E+01  0.1666E+03
      2.925  0.6701E+01  0.1672E+03
      3.023  0.7424E+01  0.1679E+03
      3.121  0.7483E+01  0.1687E+03
      3.219  0.1238E+02  0.1699E+03
      3.317  0.8737E+01  0.1707E+03
      3.415  0.1225E+02  0.1719E+03
      3.512  0.1707E+02  0.1736E+03
      3.610  0.8994E+01  0.1745E+03
      3.708  0.1006E+02  0.1755E+03
      3.806  0.1909E+02  0.1773E+03
      3.904  0.9312E+01  0.1783E+03
      4.001  0.4460E+01  0.1787E+03
      4.099  0.4597E+01  0.1791E+03
      4.197  0.3291E+01  0.1795E+03
      4.295  0.1180E+01  0.1796E+03
      4.393  0.1142E+01  0.1797E+03
      4.490  0.8548E+00  0.1798E+03
      4.588  0.1564E+01  0.1799E+03
      4.686  0.6567E+00  0.1800E+03
      4.784  0.1389E+00  0.1800E+03
      4.882  0.5359E-02  0.1800E+03
      4.979  0.4081E-06  0.1800E+03
      5.077  0.2063E-13  0.1800E+03
      5.175  0.0000E+00  0.1800E+03
      5.273  0.0000E+00  0.1800E+03
      5.371  0.0000E+00  0.1800E+03
      5.468  0.0000E+00  0.1800E+03
      5.566  0.0000E+00  0.1800E+03
      5.664  0.0000E+00  0.1800E+03
      5.762  0.0000E+00  0.1800E+03
      5.860  0.0000E+00  0.1800E+03
      5.958  0.0000E+00  0.1800E+03
      6.055  0.0000E+00  0.1800E+03
