 running on   60 total cores
 distrk:  each k-point on   60 cores,    1 groups
 distr:  one band on   10 cores,    6 groups
 using from now: INCAR     
 vasp.5.4.4.18Apr17-6-g9f103f2a35 (build Apr 13 2022 18:32:11) complex          
  
 POSCAR found type information on POSCAR  Mo S  C 
 POSCAR found :  3 types and      30 ions
 scaLAPACK will be used

 ----------------------------------------------------------------------------- 
|                                                                             |
|  ADVICE TO THIS USER RUNNING 'VASP/VAMP'   (HEAR YOUR MASTER'S VOICE ...):  |
|                                                                             |
|      You have a (more or less) 'large supercell' and for larger cells       |
|      it might be more efficient to use real space projection opertators     |
|      So try LREAL= Auto  in the INCAR   file.                               |
|      Mind:          For very  accurate calculation you might also keep the  |
|      reciprocal projection scheme          (i.e. LREAL=.FALSE.)             |
|                                                                             |
 ----------------------------------------------------------------------------- 

 LDA part: xc-table for Pade appr. of Perdew
 POSCAR found type information on POSCAR  Mo S  C 
 POSCAR found :  3 types and      30 ions
 WARNING: stress and forces are not correct
 POSCAR, INCAR and KPOINTS ok, starting setup
 FFT: planning ...
 WAVECAR not read
 charge-density read from file: 1.00000000000000                        
 entering main loop
       N       E                     dE             d eps       ncg     rms          rms(c)
DAV:   1     0.986261559227E+03    0.98626E+03   -0.52822E+04 27012   0.109E+03
DAV:   2    -0.799202994933E+02   -0.10662E+04   -0.10072E+04 38508   0.261E+02
DAV:   3    -0.212943773776E+03   -0.13302E+03   -0.12719E+03 34056   0.957E+01
DAV:   4    -0.217944631965E+03   -0.50009E+01   -0.48845E+01 36114   0.187E+01
DAV:   5    -0.218085348965E+03   -0.14072E+00   -0.13999E+00 38082   0.292E+00
RMM:   6    -0.218088537700E+03   -0.31887E-02   -0.31886E-02 28186   0.438E-01
RMM:   7    -0.218089236735E+03   -0.69903E-03   -0.69766E-03 39387   0.114E-01
RMM:   8    -0.218089272046E+03   -0.35311E-04   -0.41846E-04 23909   0.149E-02
RMM:   9    -0.218089275181E+03   -0.31351E-05   -0.39256E-05 20780   0.733E-03
   1 F= -.21808928E+03 E0= -.21808708E+03  d E =-.438396E-02
 writing wavefunctions
