       N       E                     dE             d eps       ncg     rms          rms(c)
DAV:   1     0.986261559227E+03    0.98626E+03   -0.52822E+04 27012   0.109E+03
DAV:   2    -0.799202994933E+02   -0.10662E+04   -0.10072E+04 38508   0.261E+02
DAV:   3    -0.212943773776E+03   -0.13302E+03   -0.12719E+03 34056   0.957E+01
DAV:   4    -0.217944631965E+03   -0.50009E+01   -0.48845E+01 36114   0.187E+01
DAV:   5    -0.218085348965E+03   -0.14072E+00   -0.13999E+00 38082   0.292E+00
RMM:   6    -0.218088537700E+03   -0.31887E-02   -0.31886E-02 28186   0.438E-01
RMM:   7    -0.218089236735E+03   -0.69903E-03   -0.69766E-03 39387   0.114E-01
RMM:   8    -0.218089272046E+03   -0.35311E-04   -0.41846E-04 23909   0.149E-02
RMM:   9    -0.218089275181E+03   -0.31351E-05   -0.39256E-05 20780   0.733E-03
   1 F= -.21808928E+03 E0= -.21808708E+03  d E =-.438396E-02
