 vasp.5.4.4.18Apr17-6-g9f103f2a35 (build Apr 13 2022 18:32:11) complex          
  
 executed on             LinuxIFC date 2024.07.14  20:18:23
 running on   60 total cores
 distrk:  each k-point on   60 cores,    1 groups
 distr:  one band on NCORES_PER_BAND=  10 cores,    6 groups


--------------------------------------------------------------------------------------------------------


 INCAR:
 POTCAR:    PAW_PBE Mo 08Apr2002                  
 POTCAR:    PAW_PBE S 06Sep2000                   
 POTCAR:    PAW_PBE C 08Apr2002                   
 POTCAR:    PAW_PBE Mo 08Apr2002                  
   VRHFIN =Mo: 4p5s4d                                                           
   LEXCH  = PE                                                                  
   EATOM  =   217.5176 eV,   15.9871 Ry                                         
                                                                                
   TITEL  = PAW_PBE Mo 08Apr2002                                                
   LULTRA =        F    use ultrasoft PP ?                                      
   IUNSCR =        1    unscreen: 0-lin 1-nonlin 2-no                           
   RPACOR =    2.200    partial core radius                                     
   POMASS =   95.940; ZVAL   =    6.000    mass and valenz                      
   RCORE  =    2.750    outmost cutoff radius                                   
   RWIGS  =    2.750; RWIGS  =    1.455    wigner-seitz radius (au A)           
   ENMAX  =  224.584; ENMIN  =  168.438 eV                                      
   RCLOC  =    2.111    cutoff for local pot                                    
   LCOR   =        T    correct aug charges                                     
   LPAW   =        T    paw PP                                                  
   EAUG   =  345.278                                                            
   DEXC   =    0.000                                                            
   RMAX   =    2.821    core radius for proj-oper                               
   RAUG   =    1.300    factor for augmentation sphere                          
   RDEP   =    2.815    radius for radial grids                                 
   RDEPT  =    2.211    core radius for aug-charge                              
                                                                                
   Atomic configuration                                                         
   12 entries                                                                   
     n  l   j            E        occ.                                          
     1  0  0.50    -19819.0341   2.0000                                         
     2  0  0.50     -2799.0127   2.0000                                         
     2  1  1.50     -2502.0276   6.0000                                         
     3  0  0.50      -476.4448   2.0000                                         
     3  1  1.50      -379.1496   6.0000                                         
     3  2  2.50      -220.9367  10.0000                                         
     4  0  0.50       -64.3378   2.0000                                         
     4  1  1.50       -38.4773   6.0000                                         
     4  2  2.50        -3.7535   5.0000                                         
     5  0  0.50        -4.0862   1.0000                                         
     5  1  0.50        -2.7701   0.0000                                         
     4  3  2.50        -1.3606   0.0000                                         
   Description                                                                  
     l       E           TYP  RCUT    TYP  RCUT                                 
     2     -3.7534765     23  2.500                                             
     2     -5.1140591     23  2.500                                             
     0     -4.0861560     23  2.600                                             
     0     13.6058260     23  2.600                                             
     1      5.4423304     23  2.750                                             
     1     27.2116520     23  2.750                                             
  local pseudopotential read in
  partial core-charges read in
  partial kinetic energy density read in
  atomic valenz-charges read in
  non local Contribution for L=           2  read in
    real space projection operators read in
  non local Contribution for L=           2  read in
    real space projection operators read in
  non local Contribution for L=           0  read in
    real space projection operators read in
  non local Contribution for L=           0  read in
    real space projection operators read in
  non local Contribution for L=           1  read in
    real space projection operators read in
  non local Contribution for L=           1  read in
    real space projection operators read in
    PAW grid and wavefunctions read in
 
   number of l-projection  operators is LMAX  =           6
   number of lm-projection operators is LMMAX =          18
 
 POTCAR:    PAW_PBE S 06Sep2000                   
   VRHFIN =S : s2p4                                                             
   LEXCH  = PE                                                                  
   EATOM  =   276.8230 eV,   20.3459 Ry                                         
                                                                                
   TITEL  = PAW_PBE S 06Sep2000                                                 
   LULTRA =        F    use ultrasoft PP ?                                      
   IUNSCR =        1    unscreen: 0-lin 1-nonlin 2-no                           
   RPACOR =    1.500    partial core radius                                     
   POMASS =   32.066; ZVAL   =    6.000    mass and valenz                      
   RCORE  =    1.900    outmost cutoff radius                                   
   RWIGS  =    2.200; RWIGS  =    1.164    wigner-seitz radius (au A)           
   ENMAX  =  258.689; ENMIN  =  194.016 eV                                      
   ICORE  =        2    local potential                                         
   LCOR   =        T    correct aug charges                                     
   LPAW   =        T    paw PP                                                  
   EAUG   =  335.092                                                            
   DEXC   =    0.000                                                            
   RMAX   =    1.942    core radius for proj-oper                               
   RAUG   =    1.300    factor for augmentation sphere                          
   RDEP   =    1.954    radius for radial grids                                 
   RDEPT  =    1.744    core radius for aug-charge                              
                                                                                
   Atomic configuration                                                         
    6 entries                                                                   
     n  l   j            E        occ.                                          
     1  0  0.50     -2405.8406   2.0000                                         
     2  0  0.50      -211.7007   2.0000                                         
     2  1  1.50      -156.4958   6.0000                                         
     3  0  0.50       -17.2562   2.0000                                         
     3  1  0.50        -7.0085   4.0000                                         
     3  2  1.50        -6.8029   0.0000                                         
   Description                                                                  
     l       E           TYP  RCUT    TYP  RCUT                                 
     0    -17.2561641     23  1.900                                             
     0    -15.8743224     23  1.900                                             
     1     -7.0085400     23  1.900                                             
     1     -2.7779785     23  1.900                                             
     2     -6.8029130     23  1.900                                             
  local pseudopotential read in
  partial core-charges read in
  partial kinetic energy density read in
  atomic valenz-charges read in
  non local Contribution for L=           0  read in
    real space projection operators read in
  non local Contribution for L=           0  read in
    real space projection operators read in
  non local Contribution for L=           1  read in
    real space projection operators read in
  non local Contribution for L=           1  read in
    real space projection operators read in
    PAW grid and wavefunctions read in
 
   number of l-projection  operators is LMAX  =           4
   number of lm-projection operators is LMMAX =           8
 
 POTCAR:    PAW_PBE C 08Apr2002                   
   VRHFIN =C: s2p2                                                              
   LEXCH  = PE                                                                  
   EATOM  =   147.1560 eV,   10.8157 Ry                                         
                                                                                
   TITEL  = PAW_PBE C 08Apr2002                                                 
   LULTRA =        F    use ultrasoft PP ?                                      
   IUNSCR =        1    unscreen: 0-lin 1-nonlin 2-no                           
   RPACOR =    1.200    partial core radius                                     
   POMASS =   12.011; ZVAL   =    4.000    mass and valenz                      
   RCORE  =    1.500    outmost cutoff radius                                   
   RWIGS  =    1.630; RWIGS  =    0.863    wigner-seitz radius (au A)           
   ENMAX  =  400.000; ENMIN  =  300.000 eV                                      
   ICORE  =        2    local potential                                         
   LCOR   =        T    correct aug charges                                     
   LPAW   =        T    paw PP                                                  
   EAUG   =  644.873                                                            
   DEXC   =    0.000                                                            
   RMAX   =    1.529    core radius for proj-oper                               
   RAUG   =    1.300    factor for augmentation sphere                          
   RDEP   =    1.501    radius for radial grids                                 
   RDEPT  =    1.300    core radius for aug-charge                              
                                                                                
   Atomic configuration                                                         
    4 entries                                                                   
     n  l   j            E        occ.                                          
     1  0  0.50      -273.3789   2.0000                                         
     2  0  0.50       -13.7508   2.0000                                         
     2  1  0.50        -5.2854   2.0000                                         
     3  2  1.50        -5.4423   0.0000                                         
   Description                                                                  
     l       E           TYP  RCUT    TYP  RCUT                                 
     0    -13.7508458     23  1.200                                             
     0     -8.2022199     23  1.200                                             
     1     -5.2854383     23  1.500                                             
     1     34.0145650     23  1.500                                             
     2     -5.4423304      7  1.500                                             
  local pseudopotential read in
  partial core-charges read in
  partial kinetic energy density read in
  atomic valenz-charges read in
  non local Contribution for L=           0  read in
    real space projection operators read in
  non local Contribution for L=           0  read in
    real space projection operators read in
  non local Contribution for L=           1  read in
    real space projection operators read in
  non local Contribution for L=           1  read in
    real space projection operators read in
    PAW grid and wavefunctions read in
 
   number of l-projection  operators is LMAX  =           4
   number of lm-projection operators is LMMAX =           8
 

 ----------------------------------------------------------------------------- 
|                                                                             |
|  ADVICE TO THIS USER RUNNING 'VASP/VAMP'   (HEAR YOUR MASTER'S VOICE ...):  |
|                                                                             |
|      You have a (more or less) 'large supercell' and for larger cells       |
|      it might be more efficient to use real space projection opertators     |
|      So try LREAL= Auto  in the INCAR   file.                               |
|      Mind:          For very  accurate calculation you might also keep the  |
|      reciprocal projection scheme          (i.e. LREAL=.FALSE.)             |
|                                                                             |
 ----------------------------------------------------------------------------- 

  PAW_PBE Mo 08Apr2002                  :
 energy of atom  1       EATOM= -217.5176
 kinetic energy error for atom=    0.0025 (will be added to EATOM!!)
  PAW_PBE S 06Sep2000                   :
 energy of atom  2       EATOM= -276.8230
 kinetic energy error for atom=    0.0046 (will be added to EATOM!!)
  PAW_PBE C 08Apr2002                   :
 energy of atom  3       EATOM= -147.1560
 kinetic energy error for atom=    0.0288 (will be added to EATOM!!)
 
 
 POSCAR:  supercell                              
  positions in direct lattice
  No initial velocities read in
 exchange correlation table for  LEXCH =        8
   RHO(1)=    0.500       N(1)  =     2000
   RHO(2)=  100.500       N(2)  =     4000

 VTST: version 3.2, (02/03/18)

 CHAIN: initializing optimizer
 
 OPT: Using VASP Dynamics algorithm
 CHAIN: Read ICHAIN            0
 
 POSCAR:  supercell                              
  positions in direct lattice
  No initial velocities read in
 


--------------------------------------------------------------------------------------------------------


 ion  position               nearest neighbor table
   1  0.167  0.167  0.381-   7 2.42  11 2.42   6 2.42  10 2.42   5 2.42   9 2.42   3 3.19   3 3.19
                             2 3.19   2 3.19   4 3.19   4 3.19
   2  0.667  0.167  0.381-   8 2.42  12 2.42   5 2.42   9 2.42   6 2.42  10 2.42   4 3.19   4 3.19
                             1 3.19   1 3.19   3 3.19   3 3.19
   3  0.167  0.667  0.381-   5 2.42   9 2.42   8 2.42  12 2.42   7 2.42  11 2.42   1 3.19   1 3.19
                             4 3.19   4 3.19   2 3.19   2 3.19
   4  0.667  0.667  0.381-   6 2.42  10 2.42   7 2.42  11 2.42   8 2.42  12 2.42   2 3.19   2 3.19
                             3 3.19   3 3.19   1 3.19   1 3.19
   5  0.333  0.333  0.306-   3 2.42   2 2.42   1 2.42
   6  0.833  0.333  0.306-   4 2.42   1 2.42   2 2.42
   7  0.333  0.833  0.306-   1 2.42   4 2.42   3 2.42
   8  0.833  0.833  0.306-   2 2.42   3 2.42   4 2.42
   9  0.333  0.333  0.456-   3 2.42   2 2.42   1 2.42
  10  0.833  0.333  0.456-   4 2.42   1 2.42   2 2.42
  11  0.333  0.833  0.456-   1 2.42   4 2.42   3 2.42
  12  0.833  0.833  0.456-   2 2.42   3 2.42   4 2.42
  13  0.000  0.000  0.694-  22 1.23  24 1.23  28 1.23
  14  0.333  0.000  0.694-  23 1.23  22 1.23  29 1.23
  15  0.667  0.000  0.694-  24 1.23  23 1.23  30 1.23
  16  0.000  0.333  0.694-  25 1.23  27 1.23  22 1.23
  17  0.333  0.333  0.694-  26 1.23  25 1.23  23 1.23
  18  0.667  0.333  0.694-  27 1.23  26 1.23  24 1.23
  19  0.000  0.667  0.694-  28 1.23  30 1.23  25 1.23
  20  0.333  0.667  0.694-  29 1.23  28 1.23  26 1.23
  21  0.667  0.667  0.694-  30 1.23  29 1.23  27 1.23
  22  0.111  0.111  0.694-  13 1.23  14 1.23  16 1.23
  23  0.444  0.111  0.694-  14 1.23  15 1.23  17 1.23
  24  0.778  0.111  0.694-  15 1.23  13 1.23  18 1.23
  25  0.111  0.444  0.694-  16 1.23  17 1.23  19 1.23
  26  0.444  0.444  0.694-  17 1.23  18 1.23  20 1.23
  27  0.778  0.444  0.694-  18 1.23  16 1.23  21 1.23
  28  0.111  0.778  0.694-  19 1.23  20 1.23  13 1.23
  29  0.444  0.778  0.694-  20 1.23  21 1.23  14 1.23
  30  0.778  0.778  0.694-  21 1.23  19 1.23  15 1.23
 
  LATTYP: Found a hexagonal cell.
 ALAT       =     6.3806324416
 C/A-ratio  =     3.2722467116
  
  Lattice vectors:
  
 A1 = (   3.1903169566,  -5.5257893618,   0.0000000000)
 A2 = (  -6.3806309700,   0.0000000000,   0.0000000000)
 A3 = (  -0.0000000000,  -0.0000000000, -20.8790035248)


Analysis of symmetry for initial positions (statically):
=====================================================================
 Subroutine PRICEL returns:
 Original cell was already a primitive cell.
 

 Routine SETGRP: Setting up the symmetry group for a 
 hexagonal supercell.


 Subroutine GETGRP returns: Found  6 space group operations
 (whereof  6 operations were pure point group operations)
 out of a pool of 24 trial point group operations.


The static configuration has the point symmetry C_3v.


Analysis of symmetry for dynamics (positions and initial velocities):
=====================================================================
 Subroutine PRICEL returns:
 Original cell was already a primitive cell.
 

 Routine SETGRP: Setting up the symmetry group for a 
 hexagonal supercell.


 Subroutine GETGRP returns: Found  6 space group operations
 (whereof  6 operations were pure point group operations)
 out of a pool of 24 trial point group operations.


The dynamic configuration has the point symmetry C_3v.


 Subroutine INISYM returns: Found  6 space group operations
 (whereof  6 operations are pure point group operations),
 and found     1 'primitive' translations

 
 
 KPOINTS: K-Path                                  
  interpolating k-points between supplied coordinates
  k-points in reciprocal lattice
Space group operators:
 irot       det(A)        alpha          n_x          n_y          n_z        tau_x        tau_y        tau_z
    1     1.000000     0.000000     1.000000     0.000000     0.000000     0.000000     0.000000     0.000000
    2     1.000000   120.000000     0.000000    -0.000000     1.000000     0.000000     0.000000     0.000000
    3     1.000000   120.000000    -0.000000    -0.000000    -1.000000     0.000000     0.000000     0.000000
    4    -1.000000   180.000000    -0.500000     0.866025     0.000000     0.000000     0.000000     0.000000
    5    -1.000000   180.000000     1.000000     0.000000    -0.000000     0.000000     0.000000     0.000000
    6    -1.000000   180.000000     0.500000     0.866025    -0.000000     0.000000     0.000000     0.000000


--------------------------------------------------------------------------------------------------------




 Dimension of arrays:
   k-points           NKPTS =    150   k-points in BZ     NKDIM =    150   number of bands    NBANDS=     90
   number of dos      NEDOS =    301   number of ions     NIONS =     30
   non local maximal  LDIM  =      6   non local SUM 2l+1 LMDIM =     18
   total plane-waves  NPLWV = 246960
   max r-space proj   IRMAX =      1   max aug-charges    IRDMAX=  21736
   dimension x,y,z NGX =    42 NGY =   42 NGZ =  140
   dimension x,y,z NGXF=    84 NGYF=   84 NGZF=  280
   support grid    NGXF=    84 NGYF=   84 NGZF=  280
   ions per type =               4   8  18
   NGX,Y,Z   is equivalent  to a cutoff of  10.94, 10.94, 11.15 a.u.
   NGXF,Y,Z  is equivalent  to a cutoff of  21.89, 21.89, 22.29 a.u.

 SYSTEM =                                          
 POSCAR =   supercell                              

 Startparameter for this run:
   NWRITE =      2    write-flag & timer
   PREC   = accura    normal or accurate (medium, high low for compatibility)
   ISTART =      0    job   : 0-new  1-cont  2-samecut
   ICHARG =     11    charge: 1-file 2-atom 10-const
   ISPIN  =      1    spin polarized calculation?
   LNONCOLLINEAR =      F non collinear calculations
   LSORBIT =      F    spin-orbit coupling
   INIWAV =      1    electr: 0-lowe 1-rand  2-diag
   LASPH  =      F    aspherical Exc in radial PAW
   METAGGA=      F    non-selfconsistent MetaGGA calc.

 Electronic Relaxation 1
   ENCUT  =  400.0 eV  29.40 Ry    5.42 a.u.  10.41 10.41 34.05*2*pi/ulx,y,z
   ENINI  =  400.0     initial cutoff
   ENAUG  =  644.9 eV  augmentation charge cutoff
   NELM   =    300;   NELMIN=  2; NELMDL= -5     # of ELM steps 
   EDIFF  = 0.1E-04   stopping-criterion for ELM
   LREAL  =      F    real-space projection
   NLSPLINE    = F    spline interpolate recip. space projectors
   LCOMPAT=      F    compatible to vasp.4.4
   GGA_COMPAT  = T    GGA compatible to vasp.4.4-vasp.4.6
   LMAXPAW     = -100 max onsite density
   LMAXMIX     =    2 max onsite mixed and CHGCAR
   VOSKOWN=      0    Vosko Wilk Nusair interpolation
   ROPT   =    0.00000   0.00000   0.00000
 Ionic relaxation
   EDIFFG = -.1E-02   stopping-criterion for IOM
   NSW    =      0    number of steps for IOM
   NBLOCK =      1;   KBLOCK =      1    inner block; outer block 
   IBRION =     -1    ionic relax: 0-MD 1-quasi-New 2-CG
   NFREE  =      0    steps in history (QN), initial steepest desc. (CG)
   ISIF   =      2    stress and relaxation
   IWAVPR =     10    prediction:  0-non 1-charg 2-wave 3-comb
   ISYM   =      2    0-nonsym 1-usesym 2-fastsym
   LCORR  =      T    Harris-Foulkes like correction to forces

   POTIM  = 0.5000    time-step for ionic-motion
   TEIN   =    0.0    initial temperature
   TEBEG  =    0.0;   TEEND  =   0.0 temperature during run
   SMASS  =  -3.00    Nose mass-parameter (am)
   estimated Nose-frequenzy (Omega)   =  0.10E-29 period in steps =****** mass=  -0.930E-27a.u.
   SCALEE = 1.0000    scale energy and forces
   NPACO  =    256;   APACO  = 16.0  distance and # of slots for P.C.
   PSTRESS=    0.0 pullay stress

  Mass of Ions in am
   POMASS =  95.94 32.07 12.01
  Ionic Valenz
   ZVAL   =   6.00  6.00  4.00
  Atomic Wigner-Seitz radii
   RWIGS  =  -1.00 -1.00 -1.00
  virtual crystal weights 
   VCA    =   1.00  1.00  1.00
   NELECT =     144.0000    total number of electrons
   NUPDOWN=      -1.0000    fix difference up-down

 DOS related values:
   EMIN   =  10.00;   EMAX   =-10.00  energy-range for DOS
   EFERMI =   0.00
   ISMEAR =     0;   SIGMA  =   0.05  broadening in eV -4-tet -1-fermi 0-gaus

 Electronic relaxation 2 (details)
   IALGO  =     68    algorithm
   LDIAG  =      T    sub-space diagonalisation (order eigenvalues)
   LSUBROT=      F    optimize rotation matrix (better conditioning)
   TURBO    =      0    0=normal 1=particle mesh
   IRESTART =      0    0=no restart 2=restart with 2 vectors
   NREBOOT  =      0    no. of reboots
   NMIN     =      0    reboot dimension
   EREF     =   0.00    reference energy to select bands
   IMIX   =      4    mixing-type and parameters
     AMIX     =   0.40;   BMIX     =  1.00
     AMIX_MAG =   1.60;   BMIX_MAG =  1.00
     AMIN     =   0.10
     WC   =   100.;   INIMIX=   1;  MIXPRE=   1;  MAXMIX= -45

 Intra band minimization:
   WEIMIN = 0.0000     energy-eigenvalue tresh-hold
   EBREAK =  0.28E-07  absolut break condition
   DEPER  =   0.30     relativ break condition  

   TIME   =   0.40     timestep for ELM

  volume/ion in A,a.u.               =      24.54       165.59
  Fermi-wavevector in a.u.,A,eV,Ry     =   0.950327  1.795858 12.287714  0.903121
  Thomas-Fermi vector in A             =   2.078693
 
 Write flags
   LWAVE        =      T    write WAVECAR
   LDOWNSAMPLE  =      F    k-point downsampling of WAVECAR
   LCHARG       =      F    write CHGCAR
   LVTOT        =      F    write LOCPOT, total local potential
   LVHAR        =      F    write LOCPOT, Hartree potential only
   LELF         =      F    write electronic localiz. function (ELF)
   LORBIT       =      0    0 simple, 1 ext, 2 COOP (PROOUT), +10 PAW based schemes


 Dipole corrections
   LMONO  =      F    monopole corrections only (constant potential shift)
   LDIPOL =      F    correct potential (dipole corrections)
   IDIPOL =      0    1-x, 2-y, 3-z, 4-all directions 
   EPSILON=  1.0000000 bulk dielectric constant

 Exchange correlation treatment:
   GGA     =    --    GGA type
   LEXCH   =     8    internal setting for exchange type
   VOSKOWN=      0    Vosko Wilk Nusair interpolation
   LHFCALC =     F    Hartree Fock is set to
   LHFONE  =     F    Hartree Fock one center treatment
   AEXX    =    0.0000 exact exchange contribution

 Linear response parameters
   LEPSILON=     F    determine dielectric tensor
   LRPA    =     F    only Hartree local field effects (RPA)
   LNABLA  =     F    use nabla operator in PAW spheres
   LVEL    =     F    velocity operator in full k-point grid
   LINTERFAST=   F  fast interpolation
   KINTER  =     0    interpolate to denser k-point grid
   CSHIFT  =0.1000    complex shift for real part using Kramers Kronig
   OMEGAMAX=  -1.0    maximum frequency
   DEG_THRESHOLD= 0.2000000E-02 threshold for treating states as degnerate
   RTIME   =   -0.100 relaxation time in fs
  (WPLASMAI=    0.000 imaginary part of plasma frequency in eV, 0.658/RTIME)
   DFIELD  = 0.0000000 0.0000000 0.0000000 field for delta impulse in time
 
 Orbital magnetization related:
   ORBITALMAG=     F  switch on orbital magnetization
   LCHIMAG   =     F  perturbation theory with respect to B field
   DQ        =  0.001000  dq finite difference perturbation B field
   LLRAUG    =     F  two centre corrections for induced B field



--------------------------------------------------------------------------------------------------------


 Static calculation
 charge density and potential remain constant during run
 non-spin polarized calculation
 RMM-DIIS sequential band-by-band and
  variant of blocked Davidson during initial phase
 perform sub-space diagonalisation
    before iterative eigenvector-optimisation
 no mixing
 using additional bands           18
 reciprocal scheme for non local part
 use partial core corrections
 calculate Harris-corrections to forces 
   (improved forces if not selfconsistent)
 use gradient corrections 
 WARNING: stress and forces are not correct
  (second derivative of E(xc) not defined)
 use of overlap-Matrix (Vanderbilt PP)
 Gauss-broadening in eV      SIGMA  =   0.05


--------------------------------------------------------------------------------------------------------


  energy-cutoff  :      400.00
  volume of cell :      736.15
      direct lattice vectors                 reciprocal lattice vectors
     6.380630970  0.000000000  0.000000000     0.156724312 -0.090484768 -0.000000000
     3.190314013  5.525789362  0.000000000     0.000000000  0.180969620 -0.000000000
     0.000000000  0.000000000 20.879003525     0.000000000  0.000000000  0.047895006

  length of vectors
     6.380630970  6.380630970 20.879003525     0.180969620  0.180969620  0.047895006


 
 k-points in units of 2pi/SCALE and weight: K-Path                                  
   0.00000000  0.00000000  0.00000000       0.007
   0.00319846  0.00184663 -0.00000000       0.007
   0.00639691  0.00369326 -0.00000000       0.007
   0.00959537  0.00553989 -0.00000000       0.007
   0.01279382  0.00738652 -0.00000000       0.007
   0.01599228  0.00923315 -0.00000000       0.007
   0.01919073  0.01107978 -0.00000000       0.007
   0.02238919  0.01292641 -0.00000000       0.007
   0.02558764  0.01477304 -0.00000000       0.007
   0.02878610  0.01661967 -0.00000000       0.007
   0.03198455  0.01846630 -0.00000000       0.007
   0.03518301  0.02031293 -0.00000000       0.007
   0.03838146  0.02215956 -0.00000000       0.007
   0.04157992  0.02400619 -0.00000000       0.007
   0.04477837  0.02585281 -0.00000000       0.007
   0.04797683  0.02769944 -0.00000000       0.007
   0.05117529  0.02954607 -0.00000000       0.007
   0.05437374  0.03139270 -0.00000000       0.007
   0.05757220  0.03323933 -0.00000000       0.007
   0.06077065  0.03508596 -0.00000000       0.007
   0.06396911  0.03693259 -0.00000000       0.007
   0.06716756  0.03877922 -0.00000000       0.007
   0.07036602  0.04062585 -0.00000000       0.007
   0.07356447  0.04247248 -0.00000000       0.007
   0.07676293  0.04431911 -0.00000000       0.007
   0.07996138  0.04616574 -0.00000000       0.007
   0.08315984  0.04801237 -0.00000000       0.007
   0.08635829  0.04985900 -0.00000000       0.007
   0.08955675  0.05170563 -0.00000000       0.007
   0.09275521  0.05355226 -0.00000000       0.007
   0.09595366  0.05539889 -0.00000000       0.007
   0.09915212  0.05724552 -0.00000000       0.007
   0.10235057  0.05909215 -0.00000000       0.007
   0.10554903  0.06093878 -0.00000000       0.007
   0.10874748  0.06278541 -0.00000000       0.007
   0.11194594  0.06463204 -0.00000000       0.007
   0.11514439  0.06647867 -0.00000000       0.007
   0.11834285  0.06832530 -0.00000000       0.007
   0.12154130  0.07017193 -0.00000000       0.007
   0.12473976  0.07201856 -0.00000000       0.007
   0.12793821  0.07386519 -0.00000000       0.007
   0.13113667  0.07571181 -0.00000000       0.007
   0.13433512  0.07755844 -0.00000000       0.007
   0.13753358  0.07940507 -0.00000000       0.007
   0.14073204  0.08125170 -0.00000000       0.007
   0.14393049  0.08309833 -0.00000000       0.007
   0.14712895  0.08494496 -0.00000000       0.007
   0.15032740  0.08679159 -0.00000000       0.007
   0.15352586  0.08863822 -0.00000000       0.007
   0.15672431  0.09048485 -0.00000000       0.007
   0.15672431  0.09048485 -0.00000000       0.007
   0.15565816  0.09233148 -0.00000000       0.007
   0.15459201  0.09417811 -0.00000000       0.007
   0.15352586  0.09602474 -0.00000000       0.007
   0.15245971  0.09787137 -0.00000000       0.007
   0.15139355  0.09971799 -0.00000000       0.007
   0.15032740  0.10156462 -0.00000000       0.007
   0.14926125  0.10341125 -0.00000000       0.007
   0.14819510  0.10525788 -0.00000000       0.007
   0.14712895  0.10710451 -0.00000000       0.007
   0.14606279  0.10895114 -0.00000000       0.007
   0.14499664  0.11079777 -0.00000000       0.007
   0.14393049  0.11264439 -0.00000000       0.007
   0.14286434  0.11449102 -0.00000000       0.007
   0.14179819  0.11633765 -0.00000000       0.007
   0.14073204  0.11818428 -0.00000000       0.007
   0.13966588  0.12003091 -0.00000000       0.007
   0.13859973  0.12187754 -0.00000000       0.007
   0.13753358  0.12372416 -0.00000000       0.007
   0.13646743  0.12557079 -0.00000000       0.007
   0.13540128  0.12741742 -0.00000000       0.007
   0.13433512  0.12926405 -0.00000000       0.007
   0.13326897  0.13111068 -0.00000000       0.007
   0.13220282  0.13295731 -0.00000000       0.007
   0.13113667  0.13480394 -0.00000000       0.007
   0.13007052  0.13665056 -0.00000000       0.007
   0.12900437  0.13849719 -0.00000000       0.007
   0.12793821  0.14034382 -0.00000000       0.007
   0.12687206  0.14219045 -0.00000000       0.007
   0.12580591  0.14403708 -0.00000000       0.007
   0.12473976  0.14588371 -0.00000000       0.007
   0.12367361  0.14773033 -0.00000000       0.007
   0.12260746  0.14957696 -0.00000000       0.007
   0.12154130  0.15142359 -0.00000000       0.007
   0.12047515  0.15327022 -0.00000000       0.007
   0.11940900  0.15511685 -0.00000000       0.007
   0.11834285  0.15696348 -0.00000000       0.007
   0.11727670  0.15881011 -0.00000000       0.007
   0.11621054  0.16065673 -0.00000000       0.007
   0.11514439  0.16250336 -0.00000000       0.007
   0.11407824  0.16434999 -0.00000000       0.007
   0.11301209  0.16619662 -0.00000000       0.007
   0.11194594  0.16804325 -0.00000000       0.007
   0.11087979  0.16988988 -0.00000000       0.007
   0.10981363  0.17173651 -0.00000000       0.007
   0.10874748  0.17358313 -0.00000000       0.007
   0.10768133  0.17542976 -0.00000000       0.007
   0.10661518  0.17727639 -0.00000000       0.007
   0.10554903  0.17912302 -0.00000000       0.007
   0.10448287  0.18096965 -0.00000000       0.007
   0.10448287  0.18096965 -0.00000000       0.007
   0.10235057  0.17727639 -0.00000000       0.007
   0.10021827  0.17358313 -0.00000000       0.007
   0.09808596  0.16988987 -0.00000000       0.007
   0.09595366  0.16619662 -0.00000000       0.007
   0.09382136  0.16250336 -0.00000000       0.007
   0.09168905  0.15881010 -0.00000000       0.007
   0.08955675  0.15511684 -0.00000000       0.007
   0.08742445  0.15142358 -0.00000000       0.007
   0.08529214  0.14773032 -0.00000000       0.007
   0.08315984  0.14403707 -0.00000000       0.007
   0.08102754  0.14034381 -0.00000000       0.007
   0.07889523  0.13665055 -0.00000000       0.007
   0.07676293  0.13295729 -0.00000000       0.007
   0.07463062  0.12926403 -0.00000000       0.007
   0.07249832  0.12557078 -0.00000000       0.007
   0.07036602  0.12187752 -0.00000000       0.007
   0.06823371  0.11818426 -0.00000000       0.007
   0.06610141  0.11449100 -0.00000000       0.007
   0.06396911  0.11079774 -0.00000000       0.007
   0.06183680  0.10710449 -0.00000000       0.007
   0.05970450  0.10341123 -0.00000000       0.007
   0.05757220  0.09971797 -0.00000000       0.007
   0.05543989  0.09602471 -0.00000000       0.007
   0.05330759  0.09233145 -0.00000000       0.007
   0.05117529  0.08863819 -0.00000000       0.007
   0.04904298  0.08494494 -0.00000000       0.007
   0.04691068  0.08125168 -0.00000000       0.007
   0.04477837  0.07755842 -0.00000000       0.007
   0.04264607  0.07386516 -0.00000000       0.007
   0.04051377  0.07017190 -0.00000000       0.007
   0.03838146  0.06647865 -0.00000000       0.007
   0.03624916  0.06278539 -0.00000000       0.007
   0.03411686  0.05909213 -0.00000000       0.007
   0.03198455  0.05539887 -0.00000000       0.007
   0.02985225  0.05170561 -0.00000000       0.007
   0.02771995  0.04801236 -0.00000000       0.007
   0.02558764  0.04431910 -0.00000000       0.007
   0.02345534  0.04062584 -0.00000000       0.007
   0.02132304  0.03693258 -0.00000000       0.007
   0.01919073  0.03323932 -0.00000000       0.007
   0.01705843  0.02954606 -0.00000000       0.007
   0.01492612  0.02585281 -0.00000000       0.007
   0.01279382  0.02215955 -0.00000000       0.007
   0.01066152  0.01846629 -0.00000000       0.007
   0.00852921  0.01477303 -0.00000000       0.007
   0.00639691  0.01107977 -0.00000000       0.007
   0.00426461  0.00738652 -0.00000000       0.007
   0.00213230  0.00369326 -0.00000000       0.007
   0.00000000  0.00000000  0.00000000       0.007
 
 k-points in reciprocal lattice and weights: K-Path                                  
   0.00000000  0.00000000  0.00000000       0.007
   0.02040816  0.02040816  0.00000000       0.007
   0.04081633  0.04081633  0.00000000       0.007
   0.06122449  0.06122449  0.00000000       0.007
   0.08163265  0.08163265  0.00000000       0.007
   0.10204082  0.10204082  0.00000000       0.007
   0.12244898  0.12244898  0.00000000       0.007
   0.14285714  0.14285714  0.00000000       0.007
   0.16326531  0.16326531  0.00000000       0.007
   0.18367347  0.18367347  0.00000000       0.007
   0.20408163  0.20408163  0.00000000       0.007
   0.22448980  0.22448980  0.00000000       0.007
   0.24489796  0.24489796  0.00000000       0.007
   0.26530612  0.26530612  0.00000000       0.007
   0.28571429  0.28571429  0.00000000       0.007
   0.30612245  0.30612245  0.00000000       0.007
   0.32653061  0.32653061  0.00000000       0.007
   0.34693878  0.34693878  0.00000000       0.007
   0.36734694  0.36734694  0.00000000       0.007
   0.38775510  0.38775510  0.00000000       0.007
   0.40816327  0.40816327  0.00000000       0.007
   0.42857143  0.42857143  0.00000000       0.007
   0.44897959  0.44897959  0.00000000       0.007
   0.46938776  0.46938776  0.00000000       0.007
   0.48979592  0.48979592  0.00000000       0.007
   0.51020408  0.51020408  0.00000000       0.007
   0.53061224  0.53061224  0.00000000       0.007
   0.55102041  0.55102041  0.00000000       0.007
   0.57142857  0.57142857  0.00000000       0.007
   0.59183673  0.59183673  0.00000000       0.007
   0.61224490  0.61224490  0.00000000       0.007
   0.63265306  0.63265306  0.00000000       0.007
   0.65306122  0.65306122  0.00000000       0.007
   0.67346939  0.67346939  0.00000000       0.007
   0.69387755  0.69387755  0.00000000       0.007
   0.71428571  0.71428571  0.00000000       0.007
   0.73469388  0.73469388  0.00000000       0.007
   0.75510204  0.75510204  0.00000000       0.007
   0.77551020  0.77551020  0.00000000       0.007
   0.79591837  0.79591837  0.00000000       0.007
   0.81632653  0.81632653  0.00000000       0.007
   0.83673469  0.83673469  0.00000000       0.007
   0.85714286  0.85714286  0.00000000       0.007
   0.87755102  0.87755102  0.00000000       0.007
   0.89795918  0.89795918  0.00000000       0.007
   0.91836735  0.91836735  0.00000000       0.007
   0.93877551  0.93877551  0.00000000       0.007
   0.95918367  0.95918367  0.00000000       0.007
   0.97959184  0.97959184  0.00000000       0.007
   1.00000000  1.00000000  0.00000000       0.007
   1.00000000  1.00000000  0.00000000       0.007
   0.99319728  1.00680272  0.00000000       0.007
   0.98639456  1.01360544  0.00000000       0.007
   0.97959184  1.02040816  0.00000000       0.007
   0.97278912  1.02721088  0.00000000       0.007
   0.96598639  1.03401361  0.00000000       0.007
   0.95918367  1.04081633  0.00000000       0.007
   0.95238095  1.04761905  0.00000000       0.007
   0.94557823  1.05442177  0.00000000       0.007
   0.93877551  1.06122449  0.00000000       0.007
   0.93197279  1.06802721  0.00000000       0.007
   0.92517007  1.07482993  0.00000000       0.007
   0.91836735  1.08163265  0.00000000       0.007
   0.91156463  1.08843537  0.00000000       0.007
   0.90476190  1.09523810  0.00000000       0.007
   0.89795918  1.10204082  0.00000000       0.007
   0.89115646  1.10884354  0.00000000       0.007
   0.88435374  1.11564626  0.00000000       0.007
   0.87755102  1.12244898  0.00000000       0.007
   0.87074830  1.12925170  0.00000000       0.007
   0.86394558  1.13605442  0.00000000       0.007
   0.85714286  1.14285714  0.00000000       0.007
   0.85034014  1.14965986  0.00000000       0.007
   0.84353741  1.15646259  0.00000000       0.007
   0.83673469  1.16326531  0.00000000       0.007
   0.82993197  1.17006803  0.00000000       0.007
   0.82312925  1.17687075  0.00000000       0.007
   0.81632653  1.18367347  0.00000000       0.007
   0.80952381  1.19047619  0.00000000       0.007
   0.80272109  1.19727891  0.00000000       0.007
   0.79591837  1.20408163  0.00000000       0.007
   0.78911565  1.21088435  0.00000000       0.007
   0.78231293  1.21768707  0.00000000       0.007
   0.77551020  1.22448980  0.00000000       0.007
   0.76870748  1.23129252  0.00000000       0.007
   0.76190476  1.23809524  0.00000000       0.007
   0.75510204  1.24489796  0.00000000       0.007
   0.74829932  1.25170068  0.00000000       0.007
   0.74149660  1.25850340  0.00000000       0.007
   0.73469388  1.26530612  0.00000000       0.007
   0.72789116  1.27210884  0.00000000       0.007
   0.72108844  1.27891156  0.00000000       0.007
   0.71428571  1.28571429  0.00000000       0.007
   0.70748299  1.29251701  0.00000000       0.007
   0.70068027  1.29931973  0.00000000       0.007
   0.69387755  1.30612245  0.00000000       0.007
   0.68707483  1.31292517  0.00000000       0.007
   0.68027211  1.31972789  0.00000000       0.007
   0.67346939  1.32653061  0.00000000       0.007
   0.66666667  1.33333333  0.00000000       0.007
   0.66666667  1.33333333  0.00000000       0.007
   0.65306122  1.30612245  0.00000000       0.007
   0.63945578  1.27891156  0.00000000       0.007
   0.62585034  1.25170068  0.00000000       0.007
   0.61224490  1.22448980  0.00000000       0.007
   0.59863946  1.19727891  0.00000000       0.007
   0.58503401  1.17006803  0.00000000       0.007
   0.57142857  1.14285714  0.00000000       0.007
   0.55782313  1.11564626  0.00000000       0.007
   0.54421769  1.08843537  0.00000000       0.007
   0.53061224  1.06122449  0.00000000       0.007
   0.51700680  1.03401361  0.00000000       0.007
   0.50340136  1.00680272  0.00000000       0.007
   0.48979592  0.97959184  0.00000000       0.007
   0.47619048  0.95238095  0.00000000       0.007
   0.46258503  0.92517007  0.00000000       0.007
   0.44897959  0.89795918  0.00000000       0.007
   0.43537415  0.87074830  0.00000000       0.007
   0.42176871  0.84353741  0.00000000       0.007
   0.40816327  0.81632653  0.00000000       0.007
   0.39455782  0.78911565  0.00000000       0.007
   0.38095238  0.76190476  0.00000000       0.007
   0.36734694  0.73469388  0.00000000       0.007
   0.35374150  0.70748299  0.00000000       0.007
   0.34013605  0.68027211  0.00000000       0.007
   0.32653061  0.65306122  0.00000000       0.007
   0.31292517  0.62585034  0.00000000       0.007
   0.29931973  0.59863946  0.00000000       0.007
   0.28571429  0.57142857  0.00000000       0.007
   0.27210884  0.54421769  0.00000000       0.007
   0.25850340  0.51700680  0.00000000       0.007
   0.24489796  0.48979592  0.00000000       0.007
   0.23129252  0.46258503  0.00000000       0.007
   0.21768707  0.43537415  0.00000000       0.007
   0.20408163  0.40816327  0.00000000       0.007
   0.19047619  0.38095238  0.00000000       0.007
   0.17687075  0.35374150  0.00000000       0.007
   0.16326531  0.32653061  0.00000000       0.007
   0.14965986  0.29931973  0.00000000       0.007
   0.13605442  0.27210884  0.00000000       0.007
   0.12244898  0.24489796  0.00000000       0.007
   0.10884354  0.21768707  0.00000000       0.007
   0.09523810  0.19047619  0.00000000       0.007
   0.08163265  0.16326531  0.00000000       0.007
   0.06802721  0.13605442  0.00000000       0.007
   0.05442177  0.10884354  0.00000000       0.007
   0.04081633  0.08163265  0.00000000       0.007
   0.02721088  0.05442177  0.00000000       0.007
   0.01360544  0.02721088  0.00000000       0.007
   0.00000000  0.00000000  0.00000000       0.007
 
 position of ions in fractional coordinates (direct lattice) 
   0.16666651  0.16666649  0.38133727
   0.66666651  0.16666649  0.38133727
   0.16666651  0.66666649  0.38133727
   0.66666651  0.66666649  0.38133727
   0.33333351  0.33333349  0.30638715
   0.83333351  0.33333349  0.30638715
   0.33333351  0.83333349  0.30638715
   0.83333351  0.83333349  0.30638715
   0.33333351  0.33333349  0.45628740
   0.83333351  0.33333349  0.45628740
   0.33333351  0.83333349  0.45628740
   0.83333351  0.83333349  0.45628740
   0.00000000  0.00000000  0.69361285
   0.33333333  0.00000000  0.69361285
   0.66666667  0.00000000  0.69361285
   0.00000000  0.33333333  0.69361285
   0.33333333  0.33333333  0.69361285
   0.66666667  0.33333333  0.69361285
   0.00000000  0.66666667  0.69361285
   0.33333333  0.66666667  0.69361285
   0.66666667  0.66666667  0.69361285
   0.11111100  0.11111100  0.69361285
   0.44444434  0.11111100  0.69361285
   0.77777767  0.11111100  0.69361285
   0.11111100  0.44444433  0.69361285
   0.44444434  0.44444433  0.69361285
   0.77777767  0.44444433  0.69361285
   0.11111100  0.77777766  0.69361285
   0.44444434  0.77777766  0.69361285
   0.77777767  0.77777766  0.69361285
 
 position of ions in cartesian coordinates  (Angst):
   1.59515593  0.92096393  7.96194229
   4.78547141  0.92096393  7.96194229
   3.19031293  3.68385861  7.96194229
   6.38062842  3.68385861  7.96194229
   3.19031661  1.84193067  6.39705829
   6.38063210  1.84193067  6.39705829
   4.78547362  4.60482535  6.39705829
   7.97578910  4.60482535  6.39705829
   3.19031661  1.84193067  9.52682630
   6.38063210  1.84193067  9.52682630
   4.78547362  4.60482535  9.52682630
   7.97578910  4.60482535  9.52682630
   0.00000000  0.00000000 14.48194524
   2.12687699  0.00000000 14.48194524
   4.25375398  0.00000000 14.48194524
   1.06343800  1.84192979 14.48194524
   3.19031499  1.84192979 14.48194524
   5.31719198  1.84192979 14.48194524
   2.12687601  3.68385957 14.48194524
   4.25375300  3.68385957 14.48194524
   6.38062999  3.68385957 14.48194524
   1.06343729  0.61397596 14.48194524
   3.19031428  0.61397596 14.48194524
   5.31719127  0.61397596 14.48194524
   2.12687529  2.45590574 14.48194524
   4.25375228  2.45590574 14.48194524
   6.38062927  2.45590574 14.48194524
   3.19031329  4.29783553 14.48194524
   5.31719028  4.29783553 14.48194524
   7.44406727  4.29783553 14.48194524
 


--------------------------------------------------------------------------------------------------------


 k-point  1 :   0.0000 0.0000 0.0000  plane waves:   13413
 k-point  2 :   0.0204 0.0204 0.0000  plane waves:   13424
 k-point  3 :   0.0408 0.0408 0.0000  plane waves:   13420
 k-point  4 :   0.0612 0.0612 0.0000  plane waves:   13424
 k-point  5 :   0.0816 0.0816 0.0000  plane waves:   13430
 k-point  6 :   0.1020 0.1020 0.0000  plane waves:   13412
 k-point  7 :   0.1224 0.1224 0.0000  plane waves:   13406
 k-point  8 :   0.1429 0.1429 0.0000  plane waves:   13410
 k-point  9 :   0.1633 0.1633 0.0000  plane waves:   13396
 k-point 10 :   0.1837 0.1837 0.0000  plane waves:   13402
 k-point 11 :   0.2041 0.2041 0.0000  plane waves:   13404
 k-point 12 :   0.2245 0.2245 0.0000  plane waves:   13396
 k-point 13 :   0.2449 0.2449 0.0000  plane waves:   13400
 k-point 14 :   0.2653 0.2653 0.0000  plane waves:   13386
 k-point 15 :   0.2857 0.2857 0.0000  plane waves:   13390
 k-point 16 :   0.3061 0.3061 0.0000  plane waves:   13392
 k-point 17 :   0.3265 0.3265 0.0000  plane waves:   13372
 k-point 18 :   0.3469 0.3469 0.0000  plane waves:   13370
 k-point 19 :   0.3673 0.3673 0.0000  plane waves:   13356
 k-point 20 :   0.3878 0.3878 0.0000  plane waves:   13362
 k-point 21 :   0.4082 0.4082 0.0000  plane waves:   13354
 k-point 22 :   0.4286 0.4286 0.0000  plane waves:   13342
 k-point 23 :   0.4490 0.4490 0.0000  plane waves:   13332
 k-point 24 :   0.4694 0.4694 0.0000  plane waves:   13336
 k-point 25 :   0.4898 0.4898 0.0000  plane waves:   13340
 k-point 26 :   0.5102 0.5102 0.0000  plane waves:   13340
 k-point 27 :   0.5306 0.5306 0.0000  plane waves:   13336
 k-point 28 :   0.5510 0.5510 0.0000  plane waves:   13332
 k-point 29 :   0.5714 0.5714 0.0000  plane waves:   13342
 k-point 30 :   0.5918 0.5918 0.0000  plane waves:   13354
 k-point 31 :   0.6122 0.6122 0.0000  plane waves:   13362
 k-point 32 :   0.6327 0.6327 0.0000  plane waves:   13356
 k-point 33 :   0.6531 0.6531 0.0000  plane waves:   13370
 k-point 34 :   0.6735 0.6735 0.0000  plane waves:   13372
 k-point 35 :   0.6939 0.6939 0.0000  plane waves:   13392
 k-point 36 :   0.7143 0.7143 0.0000  plane waves:   13390
 k-point 37 :   0.7347 0.7347 0.0000  plane waves:   13386
 k-point 38 :   0.7551 0.7551 0.0000  plane waves:   13400
 k-point 39 :   0.7755 0.7755 0.0000  plane waves:   13396
 k-point 40 :   0.7959 0.7959 0.0000  plane waves:   13404
 k-point 41 :   0.8163 0.8163 0.0000  plane waves:   13402
 k-point 42 :   0.8367 0.8367 0.0000  plane waves:   13396
 k-point 43 :   0.8571 0.8571 0.0000  plane waves:   13410
 k-point 44 :   0.8776 0.8776 0.0000  plane waves:   13406
 k-point 45 :   0.8980 0.8980 0.0000  plane waves:   13412
 k-point 46 :   0.9184 0.9184 0.0000  plane waves:   13430
 k-point 47 :   0.9388 0.9388 0.0000  plane waves:   13424
 k-point 48 :   0.9592 0.9592 0.0000  plane waves:   13420
 k-point 49 :   0.9796 0.9796 0.0000  plane waves:   13424
 k-point 50 :   1.0000 1.0000 0.0000  plane waves:   13413
 k-point 51 :   1.0000 1.0000 0.0000  plane waves:   13413
 k-point 52 :   0.9932 1.0068 0.0000  plane waves:   13425
 k-point 53 :   0.9864 1.0136 0.0000  plane waves:   13431
 k-point 54 :   0.9796 1.0204 0.0000  plane waves:   13425
 k-point 55 :   0.9728 1.0272 0.0000  plane waves:   13419
 k-point 56 :   0.9660 1.0340 0.0000  plane waves:   13421
 k-point 57 :   0.9592 1.0408 0.0000  plane waves:   13419
 k-point 58 :   0.9524 1.0476 0.0000  plane waves:   13419
 k-point 59 :   0.9456 1.0544 0.0000  plane waves:   13399
 k-point 60 :   0.9388 1.0612 0.0000  plane waves:   13413
 k-point 61 :   0.9320 1.0680 0.0000  plane waves:   13393
 k-point 62 :   0.9252 1.0748 0.0000  plane waves:   13387
 k-point 63 :   0.9184 1.0816 0.0000  plane waves:   13405
 k-point 64 :   0.9116 1.0884 0.0000  plane waves:   13389
 k-point 65 :   0.9048 1.0952 0.0000  plane waves:   13375
 k-point 66 :   0.8980 1.1020 0.0000  plane waves:   13387
 k-point 67 :   0.8912 1.1088 0.0000  plane waves:   13389
 k-point 68 :   0.8844 1.1156 0.0000  plane waves:   13381
 k-point 69 :   0.8776 1.1224 0.0000  plane waves:   13405
 k-point 70 :   0.8707 1.1293 0.0000  plane waves:   13409
 k-point 71 :   0.8639 1.1361 0.0000  plane waves:   13407
 k-point 72 :   0.8571 1.1429 0.0000  plane waves:   13403
 k-point 73 :   0.8503 1.1497 0.0000  plane waves:   13401
 k-point 74 :   0.8435 1.1565 0.0000  plane waves:   13403
 k-point 75 :   0.8367 1.1633 0.0000  plane waves:   13399
 k-point 76 :   0.8299 1.1701 0.0000  plane waves:   13405
 k-point 77 :   0.8231 1.1769 0.0000  plane waves:   13391
 k-point 78 :   0.8163 1.1837 0.0000  plane waves:   13377
 k-point 79 :   0.8095 1.1905 0.0000  plane waves:   13381
 k-point 80 :   0.8027 1.1973 0.0000  plane waves:   13381
 k-point 81 :   0.7959 1.2041 0.0000  plane waves:   13378
 k-point 82 :   0.7891 1.2109 0.0000  plane waves:   13368
 k-point 83 :   0.7823 1.2177 0.0000  plane waves:   13368
 k-point 84 :   0.7755 1.2245 0.0000  plane waves:   13366
 k-point 85 :   0.7687 1.2313 0.0000  plane waves:   13364
 k-point 86 :   0.7619 1.2381 0.0000  plane waves:   13360
 k-point 87 :   0.7551 1.2449 0.0000  plane waves:   13352
 k-point 88 :   0.7483 1.2517 0.0000  plane waves:   13356
 k-point 89 :   0.7415 1.2585 0.0000  plane waves:   13358
 k-point 90 :   0.7347 1.2653 0.0000  plane waves:   13336
 k-point 91 :   0.7279 1.2721 0.0000  plane waves:   13344
 k-point 92 :   0.7211 1.2789 0.0000  plane waves:   13338
 k-point 93 :   0.7143 1.2857 0.0000  plane waves:   13332
 k-point 94 :   0.7075 1.2925 0.0000  plane waves:   13328
 k-point 95 :   0.7007 1.2993 0.0000  plane waves:   13326
 k-point 96 :   0.6939 1.3061 0.0000  plane waves:   13320
 k-point 97 :   0.6871 1.3129 0.0000  plane waves:   13330
 k-point 98 :   0.6803 1.3197 0.0000  plane waves:   13324
 k-point 99 :   0.6735 1.3265 0.0000  plane waves:   13312
 k-point ** :   0.6667 1.3333 0.0000  plane waves:   13308
 k-point ** :   0.6667 1.3333 0.0000  plane waves:   13308
 k-point ** :   0.6531 1.3061 0.0000  plane waves:   13322
 k-point ** :   0.6395 1.2789 0.0000  plane waves:   13316
 k-point ** :   0.6259 1.2517 0.0000  plane waves:   13342
 k-point ** :   0.6122 1.2245 0.0000  plane waves:   13334
 k-point ** :   0.5986 1.1973 0.0000  plane waves:   13328
 k-point ** :   0.5850 1.1701 0.0000  plane waves:   13334
 k-point ** :   0.5714 1.1429 0.0000  plane waves:   13340
 k-point ** :   0.5578 1.1156 0.0000  plane waves:   13340
 k-point ** :   0.5442 1.0884 0.0000  plane waves:   13348
 k-point ** :   0.5306 1.0612 0.0000  plane waves:   13344
 k-point ** :   0.5170 1.0340 0.0000  plane waves:   13344
 k-point ** :   0.5034 1.0068 0.0000  plane waves:   13338
 k-point ** :   0.4898 0.9796 0.0000  plane waves:   13332
 k-point ** :   0.4762 0.9524 0.0000  plane waves:   13344
 k-point ** :   0.4626 0.9252 0.0000  plane waves:   13342
 k-point ** :   0.4490 0.8980 0.0000  plane waves:   13328
 k-point ** :   0.4354 0.8707 0.0000  plane waves:   13352
 k-point ** :   0.4218 0.8435 0.0000  plane waves:   13332
 k-point ** :   0.4082 0.8163 0.0000  plane waves:   13338
 k-point ** :   0.3946 0.7891 0.0000  plane waves:   13332
 k-point ** :   0.3810 0.7619 0.0000  plane waves:   13340
 k-point ** :   0.3673 0.7347 0.0000  plane waves:   13332
 k-point ** :   0.3537 0.7075 0.0000  plane waves:   13322
 k-point ** :   0.3401 0.6803 0.0000  plane waves:   13314
 k-point ** :   0.3265 0.6531 0.0000  plane waves:   13312
 k-point ** :   0.3129 0.6259 0.0000  plane waves:   13330
 k-point ** :   0.2993 0.5986 0.0000  plane waves:   13326
 k-point ** :   0.2857 0.5714 0.0000  plane waves:   13332
 k-point ** :   0.2721 0.5442 0.0000  plane waves:   13344
 k-point ** :   0.2585 0.5170 0.0000  plane waves:   13358
 k-point ** :   0.2449 0.4898 0.0000  plane waves:   13352
 k-point ** :   0.2313 0.4626 0.0000  plane waves:   13364
 k-point ** :   0.2177 0.4354 0.0000  plane waves:   13368
 k-point ** :   0.2041 0.4082 0.0000  plane waves:   13378
 k-point ** :   0.1905 0.3810 0.0000  plane waves:   13381
 k-point ** :   0.1769 0.3537 0.0000  plane waves:   13391
 k-point ** :   0.1633 0.3265 0.0000  plane waves:   13399
 k-point ** :   0.1497 0.2993 0.0000  plane waves:   13401
 k-point ** :   0.1361 0.2721 0.0000  plane waves:   13407
 k-point ** :   0.1224 0.2449 0.0000  plane waves:   13405
 k-point ** :   0.1088 0.2177 0.0000  plane waves:   13389
 k-point ** :   0.0952 0.1905 0.0000  plane waves:   13375
 k-point ** :   0.0816 0.1633 0.0000  plane waves:   13405
 k-point ** :   0.0680 0.1361 0.0000  plane waves:   13393
 k-point ** :   0.0544 0.1088 0.0000  plane waves:   13399
 k-point ** :   0.0408 0.0816 0.0000  plane waves:   13419
 k-point ** :   0.0272 0.0544 0.0000  plane waves:   13419
 k-point ** :   0.0136 0.0272 0.0000  plane waves:   13431
 k-point ** :   0.0000 0.0000 0.0000  plane waves:   13413

 maximum and minimum number of plane-waves per node :      1367     1295

 maximum number of plane-waves:     13431
 maximum index in each direction: 
   IXMAX=   10   IYMAX=   10   IZMAX=   34
   IXMIN=  -11   IYMIN=  -11   IZMIN=  -34


 parallel 3D FFT for wavefunctions:
    minimum data exchange during FFTs selected (reduces bandwidth)
 parallel 3D FFT for charge:
    minimum data exchange during FFTs selected (reduces bandwidth)


 total amount of memory used by VASP MPI-rank0   174614. kBytes
=======================================================================

   base      :      30000. kBytes
   nonl-proj :      88128. kBytes
   fftplans  :       2338. kBytes
   grid      :       4206. kBytes
   one-center:         46. kBytes
   wavefun   :      49896. kBytes
 
     INWAV:  cpu time    0.0000: real time    0.0000
 initial charge density was supplied:
 number of electron     144.0000011 magnetization 
 keeping initial charge density in first step


--------------------------------------------------------------------------------------------------------


 Maximum index for augmentation-charges          800 (set IRDMAX)


--------------------------------------------------------------------------------------------------------


 First call to EWALD:  gamma=   0.196
 Maximum number of real-space cells 4x 4x 1
 Maximum number of reciprocal cells 2x 2x 6

    FEWALD:  cpu time    0.0014: real time    0.0033


--------------------------------------- Iteration      1(   1)  ---------------------------------------


    POTLOK:  cpu time    0.0225: real time    0.0281
    SETDIJ:  cpu time    0.0048: real time    0.0050
     EDDAV:  cpu time   11.8020: real time   12.0097
       DOS:  cpu time    0.0036: real time    0.0036
    --------------------------------------------
      LOOP:  cpu time   11.8329: real time   12.0464

 eigenvalue-minimisations  : 27012
 total energy-change (2. order) : 0.9862616E+03  (-0.5282186E+04)
 number of electron     144.0000011 magnetization 
 augmentation part      144.0000011 magnetization 

 Free energy of the ion-electron system (eV)
  ---------------------------------------------------
  alpha Z        PSCENC =       201.19316853
  Ewald energy   TEWEN  =     15942.61586675
  -Hartree energ DENC   =    -21440.30548841
  -exchange      EXHF   =         0.00000000
  -V(xc)+E(xc)   XCENC  =       133.37816219
  PAW double counting   =     21967.05406803   -21678.85461905
  entropy T*S    EENTRO =        -0.01023141
  eigenvalues    EBANDS =       128.29282243
  atomic energy  EATOM  =      5732.89781016
  Solvation  Ediel_sol  =         0.00000000
  ---------------------------------------------------
  free energy    TOTEN  =       986.26155923 eV

  energy without entropy =      986.27179063  energy(sigma->0) =      986.26667493


--------------------------------------------------------------------------------------------------------




--------------------------------------- Iteration      1(   2)  ---------------------------------------


     EDDAV:  cpu time   99.6037: real time  146.0643
       DOS:  cpu time    0.0036: real time    0.0036
    --------------------------------------------
      LOOP:  cpu time   99.6073: real time  146.0679

 eigenvalue-minimisations  : 38508
 total energy-change (2. order) :-0.1066182E+04  (-0.1007221E+04)
 number of electron     144.0000011 magnetization 
 augmentation part      144.0000011 magnetization 

 Free energy of the ion-electron system (eV)
  ---------------------------------------------------
  alpha Z        PSCENC =       201.19316853
  Ewald energy   TEWEN  =     15942.61586675
  -Hartree energ DENC   =    -21440.30548841
  -exchange      EXHF   =         0.00000000
  -V(xc)+E(xc)   XCENC  =       133.37816219
  PAW double counting   =     21967.05406803   -21678.85461905
  entropy T*S    EENTRO =        -0.01444006
  eigenvalues    EBANDS =      -937.88482763
  atomic energy  EATOM  =      5732.89781016
  Solvation  Ediel_sol  =         0.00000000
  ---------------------------------------------------
  free energy    TOTEN  =       -79.92029949 eV

  energy without entropy =      -79.90585943  energy(sigma->0) =      -79.91307946


--------------------------------------------------------------------------------------------------------




--------------------------------------- Iteration      1(   3)  ---------------------------------------


     EDDAV:  cpu time   35.9165: real time   40.4208
       DOS:  cpu time    0.0038: real time    0.0038
    --------------------------------------------
      LOOP:  cpu time   35.9204: real time   40.4246

 eigenvalue-minimisations  : 34056
 total energy-change (2. order) :-0.1330235E+03  (-0.1271896E+03)
 number of electron     144.0000011 magnetization 
 augmentation part      144.0000011 magnetization 

 Free energy of the ion-electron system (eV)
  ---------------------------------------------------
  alpha Z        PSCENC =       201.19316853
  Ewald energy   TEWEN  =     15942.61586675
  -Hartree energ DENC   =    -21440.30548841
  -exchange      EXHF   =         0.00000000
  -V(xc)+E(xc)   XCENC  =       133.37816219
  PAW double counting   =     21967.05406803   -21678.85461905
  entropy T*S    EENTRO =        -0.00332113
  eigenvalues    EBANDS =     -1070.91942085
  atomic energy  EATOM  =      5732.89781016
  Solvation  Ediel_sol  =         0.00000000
  ---------------------------------------------------
  free energy    TOTEN  =      -212.94377378 eV

  energy without entropy =     -212.94045264  energy(sigma->0) =     -212.94211321


--------------------------------------------------------------------------------------------------------




--------------------------------------- Iteration      1(   4)  ---------------------------------------


     EDDAV:  cpu time   37.0828: real time   43.7357
       DOS:  cpu time    0.0035: real time    0.0035
    --------------------------------------------
      LOOP:  cpu time   37.0864: real time   43.7392

 eigenvalue-minimisations  : 36114
 total energy-change (2. order) :-0.5000858E+01  (-0.4884463E+01)
 number of electron     144.0000011 magnetization 
 augmentation part      144.0000011 magnetization 

 Free energy of the ion-electron system (eV)
  ---------------------------------------------------
  alpha Z        PSCENC =       201.19316853
  Ewald energy   TEWEN  =     15942.61586675
  -Hartree energ DENC   =    -21440.30548841
  -exchange      EXHF   =         0.00000000
  -V(xc)+E(xc)   XCENC  =       133.37816219
  PAW double counting   =     21967.05406803   -21678.85461905
  entropy T*S    EENTRO =        -0.00432145
  eigenvalues    EBANDS =     -1075.91927872
  atomic energy  EATOM  =      5732.89781016
  Solvation  Ediel_sol  =         0.00000000
  ---------------------------------------------------
  free energy    TOTEN  =      -217.94463196 eV

  energy without entropy =     -217.94031051  energy(sigma->0) =     -217.94247124


--------------------------------------------------------------------------------------------------------




--------------------------------------- Iteration      1(   5)  ---------------------------------------


     EDDAV:  cpu time   39.4777: real time   45.8977
       DOS:  cpu time    0.0035: real time    0.0035
    --------------------------------------------
      LOOP:  cpu time   39.4812: real time   45.9012

 eigenvalue-minimisations  : 38082
 total energy-change (2. order) :-0.1407170E+00  (-0.1399935E+00)
 number of electron     144.0000011 magnetization 
 augmentation part      144.0000011 magnetization 

 Free energy of the ion-electron system (eV)
  ---------------------------------------------------
  alpha Z        PSCENC =       201.19316853
  Ewald energy   TEWEN  =     15942.61586675
  -Hartree energ DENC   =    -21440.30548841
  -exchange      EXHF   =         0.00000000
  -V(xc)+E(xc)   XCENC  =       133.37816219
  PAW double counting   =     21967.05406803   -21678.85461905
  entropy T*S    EENTRO =        -0.00438965
  eigenvalues    EBANDS =     -1076.05992752
  atomic energy  EATOM  =      5732.89781016
  Solvation  Ediel_sol  =         0.00000000
  ---------------------------------------------------
  free energy    TOTEN  =      -218.08534897 eV

  energy without entropy =     -218.08095932  energy(sigma->0) =     -218.08315414


--------------------------------------------------------------------------------------------------------




--------------------------------------- Iteration      1(   6)  ---------------------------------------


    EDDIAG:  cpu time    6.8604: real time    7.0276
  RMM-DIIS:  cpu time   16.7448: real time   17.4932
    ORTHCH:  cpu time    0.6327: real time    0.6340
       DOS:  cpu time    0.0034: real time    0.0034
    --------------------------------------------
      LOOP:  cpu time   24.2413: real time   25.1582

 eigenvalue-minimisations  : 28186
 total energy-change (2. order) :-0.3188735E-02  (-0.3188615E-02)
 number of electron     144.0000011 magnetization 
 augmentation part      144.0000011 magnetization 

 Free energy of the ion-electron system (eV)
  ---------------------------------------------------
  alpha Z        PSCENC =       201.19316853
  Ewald energy   TEWEN  =     15942.61586675
  -Hartree energ DENC   =    -21440.30548841
  -exchange      EXHF   =         0.00000000
  -V(xc)+E(xc)   XCENC  =       133.37816219
  PAW double counting   =     21967.05406803   -21678.85461905
  entropy T*S    EENTRO =        -0.00438678
  eigenvalues    EBANDS =     -1076.06311912
  atomic energy  EATOM  =      5732.89781016
  Solvation  Ediel_sol  =         0.00000000
  ---------------------------------------------------
  free energy    TOTEN  =      -218.08853770 eV

  energy without entropy =     -218.08415092  energy(sigma->0) =     -218.08634431


--------------------------------------------------------------------------------------------------------




--------------------------------------- Iteration      1(   7)  ---------------------------------------


    EDDIAG:  cpu time    4.2818: real time    6.7244
  RMM-DIIS:  cpu time   22.9431: real time   25.6574
    ORTHCH:  cpu time    0.9538: real time    1.9071
       DOS:  cpu time    0.0041: real time    0.0041
    --------------------------------------------
      LOOP:  cpu time   28.1829: real time   34.2930

 eigenvalue-minimisations  : 39387
 total energy-change (2. order) :-0.6990347E-03  (-0.6976596E-03)
 number of electron     144.0000011 magnetization 
 augmentation part      144.0000011 magnetization 

 Free energy of the ion-electron system (eV)
  ---------------------------------------------------
  alpha Z        PSCENC =       201.19316853
  Ewald energy   TEWEN  =     15942.61586675
  -Hartree energ DENC   =    -21440.30548841
  -exchange      EXHF   =         0.00000000
  -V(xc)+E(xc)   XCENC  =       133.37816219
  PAW double counting   =     21967.05406803   -21678.85461905
  entropy T*S    EENTRO =        -0.00438443
  eigenvalues    EBANDS =     -1076.06382050
  atomic energy  EATOM  =      5732.89781016
  Solvation  Ediel_sol  =         0.00000000
  ---------------------------------------------------
  free energy    TOTEN  =      -218.08923673 eV

  energy without entropy =     -218.08485230  energy(sigma->0) =     -218.08704452


--------------------------------------------------------------------------------------------------------




--------------------------------------- Iteration      1(   8)  ---------------------------------------


    EDDIAG:  cpu time    4.1683: real time    6.7112
  RMM-DIIS:  cpu time   12.4472: real time   13.6993
    ORTHCH:  cpu time    0.5212: real time    0.8177
       DOS:  cpu time    0.0046: real time    0.0135
    --------------------------------------------
      LOOP:  cpu time   17.1414: real time   21.2417

 eigenvalue-minimisations  : 23909
 total energy-change (2. order) :-0.3531095E-04  (-0.4184571E-04)
 number of electron     144.0000011 magnetization 
 augmentation part      144.0000011 magnetization 

 Free energy of the ion-electron system (eV)
  ---------------------------------------------------
  alpha Z        PSCENC =       201.19316853
  Ewald energy   TEWEN  =     15942.61586675
  -Hartree energ DENC   =    -21440.30548841
  -exchange      EXHF   =         0.00000000
  -V(xc)+E(xc)   XCENC  =       133.37816219
  PAW double counting   =     21967.05406803   -21678.85461905
  entropy T*S    EENTRO =        -0.00438398
  eigenvalues    EBANDS =     -1076.06385627
  atomic energy  EATOM  =      5732.89781016
  Solvation  Ediel_sol  =         0.00000000
  ---------------------------------------------------
  free energy    TOTEN  =      -218.08927205 eV

  energy without entropy =     -218.08488806  energy(sigma->0) =     -218.08708005


--------------------------------------------------------------------------------------------------------




--------------------------------------- Iteration      1(   9)  ---------------------------------------


    EDDIAG:  cpu time    4.7396: real time    6.1785
  RMM-DIIS:  cpu time   12.9985: real time   13.8502
    ORTHCH:  cpu time    0.2634: real time    0.2643
       DOS:  cpu time    0.0037: real time    0.0037
    --------------------------------------------
      LOOP:  cpu time   18.0053: real time   20.2967

 eigenvalue-minimisations  : 20780
 total energy-change (2. order) :-0.3135137E-05  (-0.3925636E-05)
 number of electron     144.0000011 magnetization 
 augmentation part      144.0000011 magnetization 

 Free energy of the ion-electron system (eV)
  ---------------------------------------------------
  alpha Z        PSCENC =       201.19316853
  Ewald energy   TEWEN  =     15942.61586675
  -Hartree energ DENC   =    -21440.30548841
  -exchange      EXHF   =         0.00000000
  -V(xc)+E(xc)   XCENC  =       133.37816219
  PAW double counting   =     21967.05406803   -21678.85461905
  entropy T*S    EENTRO =        -0.00438396
  eigenvalues    EBANDS =     -1076.06385943
  atomic energy  EATOM  =      5732.89781016
  Solvation  Ediel_sol  =         0.00000000
  ---------------------------------------------------
  free energy    TOTEN  =      -218.08927518 eV

  energy without entropy =     -218.08489122  energy(sigma->0) =     -218.08708320


--------------------------------------------------------------------------------------------------------




 average (electrostatic) potential at core
  the test charge radii are     1.2296  0.9698  0.6991
  (the norm of the test charge is              1.0000)
       1 -43.8487       2 -43.8487       3 -43.8487       4 -43.8487       5 -91.7084
       6 -91.7084       7 -91.7084       8 -91.7084       9 -91.7319      10 -91.7319
      11 -91.7319      12 -91.7319      13 -53.7525      14 -53.7523      15 -53.7522
      16 -53.7523      17 -53.7522      18 -53.7521      19 -53.7522      20 -53.7521
      21 -53.7519      22 -53.7526      23 -53.7522      24 -53.7524      25 -53.7522
      26 -53.7520      27 -53.7521      28 -53.7524      29 -53.7521      30 -53.7523
 
 
 
 E-fermi :   1.2547     XC(G=0):  -5.6002     alpha+bet : -5.8843


 k-point     1 :       0.0000    0.0000    0.0000
  band No.  band energies     occupation 
      1     -21.9530      2.00000
      2     -18.6690      2.00000
      3     -18.6690      2.00000
      4     -18.6689      2.00000
      5     -18.6689      2.00000
      6     -18.6688      2.00000
      7     -18.6688      2.00000
      8     -14.4742      2.00000
      9     -13.2727      2.00000
     10     -12.8529      2.00000
     11     -12.8529      2.00000
     12     -12.6882      2.00000
     13     -12.6882      2.00000
     14     -12.6882      2.00000
     15     -12.4427      2.00000
     16     -12.4427      2.00000
     17     -12.4427      2.00000
     18     -12.3961      2.00000
     19     -12.3961      2.00000
     20     -12.3960      2.00000
     21     -12.3960      2.00000
     22      -9.7135      2.00000
     23      -9.4896      2.00000
     24      -9.4895      2.00000
     25      -9.4895      2.00000
     26      -9.4895      2.00000
     27      -9.4895      2.00000
     28      -9.4895      2.00000
     29      -6.1531      2.00000
     30      -6.1531      2.00000
     31      -6.1531      2.00000
     32      -6.0059      2.00000
     33      -5.4240      2.00000
     34      -5.4239      2.00000
     35      -5.4238      2.00000
     36      -5.4237      2.00000
     37      -5.4235      2.00000
     38      -5.4234      2.00000
     39      -5.2936      2.00000
     40      -5.2936      2.00000
     41      -5.2935      2.00000
     42      -5.2935      2.00000
     43      -5.2934      2.00000
     44      -5.2934      2.00000
     45      -5.1969      2.00000
     46      -5.1969      2.00000
     47      -5.1969      2.00000
     48      -4.4899      2.00000
     49      -4.4899      2.00000
     50      -4.4899      2.00000
     51      -3.5603      2.00000
     52      -3.5603      2.00000
     53      -3.5603      2.00000
     54      -3.0184      2.00000
     55      -3.0184      2.00000
     56      -2.3163      2.00000
     57      -2.3163      2.00000
     58      -2.3163      2.00000
     59      -2.2209      2.00000
     60      -1.9077      2.00000
     61      -1.9076      2.00000
     62      -1.3941      2.00000
     63      -1.3941      2.00000
     64      -1.3941      2.00000
     65      -1.1447      2.00000
     66      -1.1446      2.00000
     67      -1.0710      2.00000
     68      -1.0710      2.00000
     69      -1.0710      2.00000
     70      -0.4730      2.00000
     71       1.3918      0.00011
     72       1.3918      0.00011
     73       1.3918      0.00011
     74       1.3918      0.00011
     75       1.7537      0.00000
     76       1.7537      0.00000
     77       1.7537      0.00000
     78       2.2617      0.00000
     79       2.2617      0.00000
     80       2.2617      0.00000
     81       2.3308      0.00000
     82       2.3308      0.00000
     83       2.5460      0.00000
     84       2.5460      0.00000
     85       3.3908      0.00000
     86       3.4467      0.00000
     87       3.4478      0.00000
     88       3.4781      0.00000
     89       3.8105      0.00000
     90       3.9167      0.00000

 k-point     2 :       0.0204    0.0204    0.0000
  band No.  band energies     occupation 
      1     -21.9516      2.00000
      2     -18.7993      2.00000
      3     -18.7334      2.00000
      4     -18.7334      2.00000
      5     -18.6017      2.00000
      6     -18.6017      2.00000
      7     -18.5360      2.00000
      8     -14.4727      2.00000
      9     -13.2720      2.00000
     10     -12.8976      2.00000
     11     -12.8976      2.00000
     12     -12.6906      2.00000
     13     -12.6883      2.00000
     14     -12.6883      2.00000
     15     -12.4594      2.00000
     16     -12.4594      2.00000
     17     -12.4438      2.00000
     18     -12.4427      2.00000
     19     -12.4427      2.00000
     20     -12.2854      2.00000
     21     -12.2854      2.00000
     22      -9.7158      2.00000
     23      -9.7116      2.00000
     24      -9.6022      2.00000
     25      -9.6022      2.00000
     26      -9.3755      2.00000
     27      -9.3755      2.00000
     28      -9.2625      2.00000
     29      -6.1509      2.00000
     30      -6.1509      2.00000
     31      -6.1505      2.00000
     32      -6.0042      2.00000
     33      -5.5882      2.00000
     34      -5.5049      2.00000
     35      -5.5049      2.00000
     36      -5.3653      2.00000
     37      -5.3394      2.00000
     38      -5.3394      2.00000
     39      -5.3347      2.00000
     40      -5.3347      2.00000
     41      -5.2615      2.00000
     42      -5.2615      2.00000
     43      -5.2574      2.00000
     44      -5.2190      2.00000
     45      -5.1973      2.00000
     46      -5.1973      2.00000
     47      -5.1940      2.00000
     48      -4.4891      2.00000
     49      -4.4891      2.00000
     50      -4.4887      2.00000
     51      -3.5604      2.00000
     52      -3.5604      2.00000
     53      -3.5590      2.00000
     54      -3.0220      2.00000
     55      -3.0168      2.00000
     56      -2.3158      2.00000
     57      -2.3158      2.00000
     58      -2.3154      2.00000
     59      -2.2353      2.00000
     60      -1.9103      2.00000
     61      -1.8953      2.00000
     62      -1.4071      2.00000
     63      -1.4071      2.00000
     64      -1.3956      2.00000
     65      -1.1493      2.00000
     66      -1.1485      2.00000
     67      -1.0739      2.00000
     68      -1.0643      2.00000
     69      -1.0643      2.00000
     70      -0.4736      2.00000
     71       1.2344      1.43440
     72       1.2344      1.43433
     73       1.5478      0.00000
     74       1.5478      0.00000
     75       1.7532      0.00000
     76       1.7542      0.00000
     77       1.7542      0.00000
     78       2.2592      0.00000
     79       2.2615      0.00000
     80       2.2615      0.00000
     81       2.3280      0.00000
     82       2.3336      0.00000
     83       2.5410      0.00000
     84       2.5441      0.00000
     85       3.3969      0.00000
     86       3.4469      0.00000
     87       3.4484      0.00000
     88       3.4829      0.00000
     89       3.8081      0.00000
     90       3.8167      0.00000

 k-point     3 :       0.0408    0.0408    0.0000
  band No.  band energies     occupation 
      1     -21.9474      2.00000
      2     -18.9273      2.00000
      3     -18.7953      2.00000
      4     -18.7953      2.00000
      5     -18.5320      2.00000
      6     -18.5320      2.00000
      7     -18.4006      2.00000
      8     -14.4684      2.00000
      9     -13.2699      2.00000
     10     -13.0071      2.00000
     11     -13.0071      2.00000
     12     -12.6979      2.00000
     13     -12.6887      2.00000
     14     -12.6887      2.00000
     15     -12.4839      2.00000
     16     -12.4839      2.00000
     17     -12.4470      2.00000
     18     -12.4425      2.00000
     19     -12.4425      2.00000
     20     -12.1433      2.00000
     21     -12.1433      2.00000
     22      -9.9411      2.00000
     23      -9.7134      2.00000
     24      -9.7134      2.00000
     25      -9.7060      2.00000
     26      -9.2604      2.00000
     27      -9.2604      2.00000
     28      -9.0349      2.00000
     29      -6.1445      2.00000
     30      -6.1445      2.00000
     31      -6.1430      2.00000
     32      -5.9989      2.00000
     33      -5.7503      2.00000
     34      -5.5829      2.00000
     35      -5.5829      2.00000
     36      -5.4346      2.00000
     37      -5.3834      2.00000
     38      -5.3834      2.00000
     39      -5.2522      2.00000
     40      -5.2522      2.00000
     41      -5.2374      2.00000
     42      -5.2374      2.00000
     43      -5.1982      2.00000
     44      -5.1982      2.00000
     45      -5.1871      2.00000
     46      -5.1421      2.00000
     47      -5.0875      2.00000
     48      -4.4866      2.00000
     49      -4.4866      2.00000
     50      -4.4851      2.00000
     51      -3.5608      2.00000
     52      -3.5608      2.00000
     53      -3.5554      2.00000
     54      -3.0327      2.00000
     55      -3.0119      2.00000
     56      -2.3141      2.00000
     57      -2.3141      2.00000
     58      -2.3128      2.00000
     59      -2.2734      2.00000
     60      -1.9180      2.00000
     61      -1.8639      2.00000
     62      -1.4432      2.00000
     63      -1.4432      2.00000
     64      -1.4001      2.00000
     65      -1.1659      2.00000
     66      -1.1595      2.00000
     67      -1.0825      2.00000
     68      -1.0473      2.00000
     69      -1.0473      2.00000
     70      -0.4754      2.00000
     71       1.0758      2.00000
     72       1.0758      2.00000
     73       1.7024      0.00000
     74       1.7025      0.00000
     75       1.7518      0.00000
     76       1.7558      0.00000
     77       1.7558      0.00000
     78       2.2516      0.00000
     79       2.2611      0.00000
     80       2.2611      0.00000
     81       2.3196      0.00000
     82       2.3419      0.00000
     83       2.5258      0.00000
     84       2.5390      0.00000
     85       3.3996      0.00000
     86       3.4391      0.00000
     87       3.4525      0.00000
     88       3.5517      0.00000
     89       3.7943      0.00000
     90       3.8008      0.00000

 k-point     4 :       0.0612    0.0612    0.0000
  band No.  band energies     occupation 
      1     -21.9405      2.00000
      2     -19.0528      2.00000
      3     -18.8546      2.00000
      4     -18.8546      2.00000
      5     -18.4596      2.00000
      6     -18.4596      2.00000
      7     -18.2628      2.00000
      8     -14.4610      2.00000
      9     -13.2664      2.00000
     10     -13.1465      2.00000
     11     -13.1465      2.00000
     12     -12.7100      2.00000
     13     -12.6893      2.00000
     14     -12.6893      2.00000
     15     -12.4892      2.00000
     16     -12.4892      2.00000
     17     -12.4522      2.00000
     18     -12.4421      2.00000
     19     -12.4421      2.00000
     20     -11.9856      2.00000
     21     -11.9856      2.00000
     22     -10.1653      2.00000
     23      -9.8231      2.00000
     24      -9.8231      2.00000
     25      -9.6968      2.00000
     26      -9.1440      2.00000
     27      -9.1440      2.00000
     28      -8.8064      2.00000
     29      -6.1339      2.00000
     30      -6.1339      2.00000
     31      -6.1305      2.00000
     32      -5.9901      2.00000
     33      -5.9099      2.00000
     34      -5.6576      2.00000
     35      -5.6576      2.00000
     36      -5.5019      2.00000
     37      -5.4401      2.00000
     38      -5.4401      2.00000
     39      -5.2210      2.00000
     40      -5.2210      2.00000
     41      -5.2018      2.00000
     42      -5.2018      2.00000
     43      -5.1740      2.00000
[...]
     53      -3.5592      2.00000
     54      -3.0232      2.00000
     55      -3.0162      2.00000
     56      -2.3157      2.00000
     57      -2.3153      2.00000
     58      -2.3153      2.00000
     59      -2.2399      2.00000
     60      -1.9112      2.00000
     61      -1.8915      2.00000
     62      -1.4162      2.00000
     63      -1.4013      2.00000
     64      -1.4013      2.00000
     65      -1.1512      2.00000
     66      -1.1497      2.00000
     67      -1.0705      2.00000
     68      -1.0705      2.00000
     69      -1.0583      2.00000
     70      -0.4738      2.00000
     71       1.2068      1.82464
     72       1.2131      1.76033
     73       1.5686      0.00000
     74       1.5751      0.00000
     75       1.7535      0.00000
     76       1.7535      0.00000
     77       1.7548      0.00000
     78       2.2594      0.00000
     79       2.2594      0.00000
     80       2.2625      0.00000
     81       2.3270      0.00000
     82       2.3345      0.00000
     83       2.5391      0.00000
     84       2.5436      0.00000
     85       3.3951      0.00000
     86       3.4465      0.00000
     87       3.4470      0.00000
     88       3.4659      0.00000
     89       3.8058      0.00000
     90       3.8170      0.00000

 k-point   150 :       0.0000    0.0000    0.0000
  band No.  band energies     occupation 
      1     -21.9530      2.00000
      2     -18.6690      2.00000
      3     -18.6690      2.00000
      4     -18.6689      2.00000
      5     -18.6689      2.00000
      6     -18.6688      2.00000
      7     -18.6688      2.00000
      8     -14.4742      2.00000
      9     -13.2727      2.00000
     10     -12.8529      2.00000
     11     -12.8529      2.00000
     12     -12.6882      2.00000
     13     -12.6882      2.00000
     14     -12.6882      2.00000
     15     -12.4427      2.00000
     16     -12.4427      2.00000
     17     -12.4427      2.00000
     18     -12.3961      2.00000
     19     -12.3961      2.00000
     20     -12.3960      2.00000
     21     -12.3960      2.00000
     22      -9.7135      2.00000
     23      -9.4896      2.00000
     24      -9.4895      2.00000
     25      -9.4895      2.00000
     26      -9.4895      2.00000
     27      -9.4895      2.00000
     28      -9.4895      2.00000
     29      -6.1531      2.00000
     30      -6.1531      2.00000
     31      -6.1531      2.00000
     32      -6.0059      2.00000
     33      -5.4240      2.00000
     34      -5.4239      2.00000
     35      -5.4238      2.00000
     36      -5.4237      2.00000
     37      -5.4235      2.00000
     38      -5.4234      2.00000
     39      -5.2936      2.00000
     40      -5.2936      2.00000
     41      -5.2935      2.00000
     42      -5.2935      2.00000
     43      -5.2934      2.00000
     44      -5.2934      2.00000
     45      -5.1969      2.00000
     46      -5.1969      2.00000
     47      -5.1969      2.00000
     48      -4.4899      2.00000
     49      -4.4899      2.00000
     50      -4.4899      2.00000
     51      -3.5603      2.00000
     52      -3.5603      2.00000
     53      -3.5603      2.00000
     54      -3.0184      2.00000
     55      -3.0184      2.00000
     56      -2.3163      2.00000
     57      -2.3163      2.00000
     58      -2.3163      2.00000
     59      -2.2209      2.00000
     60      -1.9077      2.00000
     61      -1.9076      2.00000
     62      -1.3941      2.00000
     63      -1.3941      2.00000
     64      -1.3941      2.00000
     65      -1.1447      2.00000
     66      -1.1446      2.00000
     67      -1.0710      2.00000
     68      -1.0710      2.00000
     69      -1.0710      2.00000
     70      -0.4730      2.00000
     71       1.3918      0.00011
     72       1.3918      0.00011
     73       1.3918      0.00011
     74       1.3918      0.00011
     75       1.7537      0.00000
     76       1.7537      0.00000
     77       1.7537      0.00000
     78       2.2617      0.00000
     79       2.2617      0.00000
     80       2.2617      0.00000
     81       2.3307      0.00000
     82       2.3308      0.00000
     83       2.5460      0.00000
     84       2.5461      0.00000
     85       3.3932      0.00000
     86       3.4467      0.00000
     87       3.4483      0.00000
     88       3.4511      0.00000
     89       3.8105      0.00000
     90       3.8317      0.00000


--------------------------------------------------------------------------------------------------------


 soft charge-density along one line, spin component           1
         0         1         2         3         4         5         6         7         8         9
 total charge-density along one line
 
 pseudopotential strength for first ion, spin component:           1
 -9.182   0.000  -0.000   0.000  -0.000  -9.377   0.000  -0.000
  0.000  -9.171   0.000   0.000   0.000   0.000  -9.366   0.000
 -0.000   0.000  -9.165   0.000   0.000  -0.000   0.000  -9.360
  0.000   0.000   0.000  -9.171   0.000   0.000   0.000   0.000
 -0.000   0.000   0.000   0.000  -9.182  -0.000   0.000   0.000
 -9.377   0.000  -0.000   0.000  -0.000  -9.561   0.000  -0.000
  0.000  -9.366   0.000   0.000   0.000   0.000  -9.551   0.000
 -0.000   0.000  -9.360   0.000   0.000  -0.000   0.000  -9.544
  0.000   0.000   0.000  -9.366   0.000   0.000   0.000   0.000
 -0.000   0.000   0.000   0.000  -9.377  -0.000   0.000   0.000
 -0.000  -0.000  -0.006  -0.000   0.000  -0.000  -0.000  -0.006
 -0.000  -0.000  -0.012  -0.000   0.000  -0.000  -0.000  -0.012
  0.000   0.000   0.000  -0.000   0.004   0.000   0.000   0.000
 -0.000  -0.000   0.000   0.000   0.000  -0.000  -0.000   0.000
  0.004  -0.000  -0.000   0.000   0.000   0.004  -0.000  -0.000
  0.000   0.000   0.000  -0.000   0.005   0.000   0.000   0.000
 -0.000  -0.000   0.000   0.000   0.000  -0.000  -0.000   0.000
  0.005  -0.000  -0.000   0.000   0.000   0.005  -0.000  -0.000
 total augmentation occupancy for first ion, spin component:           1
  1.000   0.000   0.000   0.000   0.000   0.000   0.000   0.000   0.000   0.000   0.000   0.000   0.000   0.000   0.000   0.000
  0.000   1.000   0.000   0.000   0.000   0.000   0.000   0.000   0.000   0.000   0.000   0.000   0.000   0.000   0.000   0.000
  0.000   0.000   1.000   0.000   0.000   0.000   0.000   0.000   0.000   0.000   0.000   0.000   0.000   0.000   0.000   0.000
  0.000   0.000   0.000   1.000   0.000   0.000   0.000   0.000   0.000   0.000   0.000   0.000   0.000   0.000   0.000   0.000
  0.000   0.000   0.000   0.000   1.000   0.000   0.000   0.000   0.000   0.000   0.000   0.000   0.000   0.000   0.000   0.000
  0.000   0.000   0.000   0.000   0.000   0.000   0.000   0.000   0.000   0.000   0.000   0.000   0.000   0.000   0.000   0.000
  0.000   0.000   0.000   0.000   0.000   0.000   0.000   0.000   0.000   0.000   0.000   0.000   0.000   0.000   0.000   0.000
  0.000   0.000   0.000   0.000   0.000   0.000   0.000   0.000   0.000   0.000   0.000   0.000   0.000   0.000   0.000   0.000
  0.000   0.000   0.000   0.000   0.000   0.000   0.000   0.000   0.000   0.000   0.000   0.000   0.000   0.000   0.000   0.000
  0.000   0.000   0.000   0.000   0.000   0.000   0.000   0.000   0.000   0.000   0.000   0.000   0.000   0.000   0.000   0.000
  0.000   0.000   0.000   0.000   0.000   0.000   0.000   0.000   0.000   0.000   1.000   0.000   0.000   0.000   0.000   0.000
  0.000   0.000   0.000   0.000   0.000   0.000   0.000   0.000   0.000   0.000   0.000   0.000   0.000   0.000   0.000   0.000
  0.000   0.000   0.000   0.000   0.000   0.000   0.000   0.000   0.000   0.000   0.000   0.000   0.000   0.000   0.000   0.000
  0.000   0.000   0.000   0.000   0.000   0.000   0.000   0.000   0.000   0.000   0.000   0.000   0.000   0.000   0.000   0.000
  0.000   0.000   0.000   0.000   0.000   0.000   0.000   0.000   0.000   0.000   0.000   0.000   0.000   0.000   0.000   0.000
  0.000   0.000   0.000   0.000   0.000   0.000   0.000   0.000   0.000   0.000   0.000   0.000   0.000   0.000   0.000   0.000
  0.000   0.000   0.000   0.000   0.000   0.000   0.000   0.000   0.000   0.000   0.000   0.000   0.000   0.000   0.000   0.000
  0.000   0.000   0.000   0.000   0.000   0.000   0.000   0.000   0.000   0.000   0.000   0.000   0.000   0.000   0.000   0.000


------------------------ aborting loop because EDIFF is reached ----------------------------------------


    CHARGE:  cpu time    0.6966: real time    1.3972
    FORLOC:  cpu time    0.0090: real time    0.0191
    FORNL :  cpu time   10.1357: real time   11.9783
    STRESS:  cpu time   14.4144: real time   16.0880
    FORCOR:  cpu time    0.0218: real time    0.0233
    FORHAR:  cpu time    0.0074: real time    0.0075
    OFIELD:  cpu time    0.0001: real time    0.0001

  FORCE on cell =-STRESS in cart. coord.  units (eV):
  Direction    XX          YY          ZZ          XY          YZ          ZX
  --------------------------------------------------------------------------------------
  Alpha Z   201.19317   201.19317   201.19317
  Ewald   21015.77041 21015.76841-26088.93961     0.00156     0.00000     0.00000
  Hartree 21202.02196 21202.02197-20971.30457    -0.00001     0.00000     0.00000
  E(xc)    -575.02641  -575.02643  -589.16120     0.00002    -0.00000    -0.00000
  Local  -44139.59187-44139.59210 44792.32976     0.00024    -0.00000    -0.00000
  n-local   406.92443   405.52695   447.55589     0.14937     0.00053    -0.00019
  augment  -115.34757  -115.34708  -115.51860    -0.00035    -0.00000    -0.00000
  Kinetic  2258.90618  2255.56779  2319.48842     0.58700     0.00588     0.00348
  Fock        0.00000     0.00000     0.00000     0.00000     0.00000     0.00000
  -------------------------------------------------------------------------------------
  Total     252.48145   252.48152    -4.35674    -0.00007    -0.00000    -0.00000
  in kB     549.50586   549.50603    -9.48209    -0.00015    -0.00000    -0.00000
  external pressure =      363.18 kB  Pullay stress =        0.00 kB


 VOLUME and BASIS-vectors are now :
 -----------------------------------------------------------------------------
  energy-cutoff  :      400.00
  volume of cell :      736.15
      direct lattice vectors                 reciprocal lattice vectors
     6.380630970  0.000000000  0.000000000     0.156724312 -0.090484768 -0.000000000
     3.190314013  5.525789362  0.000000000     0.000000000  0.180969620 -0.000000000
     0.000000000  0.000000000 20.879003525     0.000000000  0.000000000  0.047895006

  length of vectors
     6.380630970  6.380630970 20.879003525     0.180969620  0.180969620  0.047895006


 FORCES acting on ions
    electron-ion (+dipol)            ewald-force                    non-local-force                 convergence-correction
 -----------------------------------------------------------------------------------------------
   0.461E-04 0.259E-04 0.416E+03   0.154E-03 0.889E-04 -.416E+03   0.116E-05 0.669E-06 0.648E-01   -.540E-04 0.117E-03 0.182E+00
   0.202E-05 0.259E-04 0.416E+03   0.153E-03 0.889E-04 -.416E+03   -.116E-05 0.669E-06 0.648E-01   -.744E-04 0.118E-03 0.182E+00
   0.240E-04 -.123E-04 0.416E+03   0.154E-03 0.884E-04 -.416E+03   0.357E-12 -.134E-05 0.648E-01   -.634E-04 0.986E-04 0.182E+00
   0.241E-04 0.132E-04 0.416E+03   0.154E-03 0.887E-04 -.416E+03   0.328E-17 0.296E-17 0.649E-01   -.650E-04 0.110E-03 0.182E+00
   -.872E-03 -.474E-03 0.792E+03   -.769E-04 -.444E-04 -.797E+03   0.292E-15 0.154E-15 0.452E+01   -.967E-04 0.168E-03 0.318E+00
   -.872E-03 -.422E-03 0.792E+03   -.769E-04 -.435E-04 -.797E+03   0.511E-11 -.192E-04 0.452E+01   -.970E-04 0.145E-03 0.318E+00
   -.826E-03 -.501E-03 0.792E+03   -.761E-04 -.448E-04 -.797E+03   -.166E-04 0.959E-05 0.452E+01   -.117E-03 0.179E-03 0.318E+00
   -.918E-03 -.501E-03 0.792E+03   -.776E-04 -.448E-04 -.797E+03   0.166E-04 0.959E-05 0.452E+01   -.766E-04 0.180E-03 0.318E+00
   -.871E-03 -.474E-03 0.399E+02   -.769E-04 -.444E-04 -.356E+02   -.270E-15 -.146E-15 -.433E+01   -.893E-04 0.172E-03 0.265E-01
   -.871E-03 -.409E-03 0.399E+02   -.769E-04 -.133E-03 -.356E+02   0.792E-11 -.297E-04 -.433E+01   -.105E-03 0.217E-03 0.265E-01
   -.815E-03 -.506E-03 0.399E+02   -.154E-03 -.114E-07 -.356E+02   -.258E-04 0.149E-04 -.433E+01   -.584E-04 0.137E-03 0.265E-01
   -.927E-03 -.506E-03 0.399E+02   -.194E-07 -.115E-07 -.356E+02   0.258E-04 0.149E-04 -.433E+01   -.135E-03 0.146E-03 0.265E-01
   0.398E-04 0.233E-04 -.278E+03   -.369E-03 -.223E-03 0.277E+03   0.424E-17 0.415E-18 0.743E-01   -.816E-04 -.465E-04 0.940E-01
   -.692E-02 -.803E-02 -.278E+03   0.449E-02 0.773E-02 0.277E+03   -.221E-03 0.313E-03 0.747E-01   0.185E-02 -.666E-03 0.940E-01
   0.700E-02 -.803E-02 -.278E+03   -.523E-02 0.773E-02 0.277E+03   0.221E-03 0.313E-03 0.747E-01   -.181E-02 -.645E-04 0.940E-01
   -.104E-01 -.198E-02 -.278E+03   0.894E-02 0.930E-05 0.277E+03   0.160E-03 -.348E-03 0.747E-01   0.348E-03 0.194E-02 0.940E-01
   0.398E-04 0.233E-04 -.278E+03   -.369E-03 -.223E-03 0.277E+03   0.425E-17 -.131E-17 0.752E-01   0.578E-03 0.335E-03 0.942E-01
   0.105E-01 -.198E-02 -.278E+03   -.968E-02 0.931E-05 0.277E+03   -.160E-03 -.348E-03 0.747E-01   -.889E-03 0.220E-02 0.940E-01
   -.345E-02 0.101E-01 -.278E+03   0.409E-02 -.840E-02 0.277E+03   0.381E-03 0.354E-04 0.747E-01   -.962E-03 -.154E-02 0.940E-01
   0.353E-02 0.101E-01 -.278E+03   -.482E-02 -.840E-02 0.277E+03   -.381E-03 0.354E-04 0.747E-01   0.146E-02 -.187E-02 0.940E-01
   0.398E-04 0.233E-04 -.278E+03   -.369E-03 -.223E-03 0.277E+03   0.511E-17 0.215E-17 0.745E-01   -.497E-03 -.286E-03 0.939E-01
   -.254E-02 -.146E-02 -.278E+03   0.175E-02 0.102E-02 0.277E+03   -.232E-03 -.134E-03 0.747E-01   0.107E-02 0.617E-03 0.939E-01
   0.162E-03 0.986E-02 -.278E+03   0.369E-03 -.818E-02 0.277E+03   0.415E-10 -.156E-03 0.750E-01   0.513E-03 -.735E-03 0.940E-01
   0.286E-02 -.146E-02 -.278E+03   -.102E-02 0.102E-02 0.277E+03   0.232E-03 -.134E-03 0.747E-01   -.154E-02 0.951E-03 0.939E-01
   0.862E-02 -.478E-02 -.278E+03   -.691E-02 0.443E-02 0.277E+03   -.135E-03 0.779E-04 0.750E-01   -.379E-03 0.810E-03 0.940E-01
   -.830E-02 -.478E-02 -.278E+03   0.765E-02 0.443E-02 0.277E+03   0.135E-03 0.779E-04 0.750E-01   0.943E-03 0.543E-03 0.940E-01
   0.162E-03 -.127E-01 -.278E+03   0.369E-03 0.102E-01 0.277E+03   0.261E-10 -.979E-04 0.753E-01   -.567E-03 0.246E-02 0.941E-01
   0.162E-03 0.322E-02 -.278E+03   0.369E-03 -.138E-02 0.277E+03   -.714E-10 0.268E-03 0.747E-01   0.551E-04 -.181E-02 0.939E-01
   -.109E-01 0.650E-02 -.278E+03   0.904E-02 -.478E-02 0.277E+03   -.848E-04 0.490E-04 0.753E-01   0.185E-02 -.172E-02 0.941E-01
   0.112E-01 0.650E-02 -.278E+03   -.830E-02 -.478E-02 0.277E+03   0.848E-04 0.490E-04 0.753E-01   -.194E-02 -.112E-02 0.941E-01
 -----------------------------------------------------------------------------------------------
   -.506E-02 -.263E-02 -.617E+01   -.522E-14 0.396E-13 0.227E-12   0.139E-15 0.603E-16 0.238E+01   -.103E-02 0.178E-02 0.380E+01
 
 
 POSITION                                       TOTAL-FORCE (eV/Angst)
 -----------------------------------------------------------------------------------
      1.59516      0.92096      7.96194         0.000034      0.000020      0.018062
      4.78547      0.92096      7.96194        -0.000034      0.000020      0.018062
      3.19031      3.68386      7.96194         0.000000     -0.000039      0.018062
      6.38063      3.68386      7.96194         0.000000      0.000000      0.018041
      3.19032      1.84193      6.39706         0.000000      0.000000      0.050072
      6.38063      1.84193      6.39706        -0.000000      0.000011      0.050068
      4.78547      4.60483      6.39706         0.000009     -0.000005      0.050068
      7.97579      4.60483      6.39706        -0.000009     -0.000005      0.050068
      3.19032      1.84193      9.52683        -0.000000     -0.000000     -0.058035
      6.38063      1.84193      9.52683         0.000000     -0.000006     -0.058006
      4.78547      4.60483      9.52683        -0.000006      0.000003     -0.058006
      7.97579      4.60483      9.52683         0.000006      0.000003     -0.058006
      0.00000      0.00000     14.48195        -0.000000     -0.000000     -0.002508
      2.12688      0.00000     14.48195        -0.000324     -0.000144     -0.002380
      4.25375      0.00000     14.48195         0.000324     -0.000144     -0.002380
      1.06344      1.84193     14.48195        -0.000287     -0.000209     -0.002380
      3.19031      1.84193     14.48195        -0.000000     -0.000000     -0.002581
      5.31719      1.84193     14.48195         0.000287     -0.000209     -0.002380
      2.12688      3.68386     14.48195         0.000037      0.000353     -0.002380
      4.25375      3.68386     14.48195        -0.000037      0.000353     -0.002380
      6.38063      3.68386     14.48195        -0.000000     -0.000000     -0.002111
      1.06344      0.61398     14.48195        -0.000143     -0.000083     -0.002116
      3.19031      0.61398     14.48195        -0.000000      0.000351     -0.001956
      5.31719      0.61398     14.48195         0.000143     -0.000083     -0.002116
      2.12688      2.45591     14.48195         0.000304     -0.000176     -0.001956
      4.25375      2.45591     14.48195        -0.000304     -0.000176     -0.001956
      6.38063      2.45591     14.48195         0.000000     -0.000500     -0.002253
      3.19031      4.29784     14.48195        -0.000000      0.000166     -0.002116
      5.31719      4.29784     14.48195        -0.000433      0.000250     -0.002253
      7.44407      4.29784     14.48195         0.000433      0.000250     -0.002253
 -----------------------------------------------------------------------------------
    total drift:                               -0.006094     -0.000849      0.003403


--------------------------------------------------------------------------------------------------------



  FREE ENERGIE OF THE ION-ELECTRON SYSTEM (eV)
  ---------------------------------------------------
  free  energy   TOTEN  =      -218.08927518 eV

  energy  without entropy=     -218.08489122  energy(sigma->0) =     -218.08708320
 


--------------------------------------------------------------------------------------------------------


    POTLOK:  cpu time    0.0191: real time    0.0192


--------------------------------------------------------------------------------------------------------


 stress matrix after NEB project (eV)
    252.48145     -0.00007     -0.00000
     -0.00007    252.48152     -0.00000
     -0.00000     -0.00000     -4.35674
  FORCES: max atom, RMS     0.058035    0.028802
  FORCE total and by dimension    0.157757    0.058035
  Stress total and by dimension  357.089318  252.481523
 writing wavefunctions
     LOOP+:  cpu time  350.1621: real time  435.7465
    4ORBIT:  cpu time    0.0000: real time    0.0000

 total amount of memory used by VASP MPI-rank0   174614. kBytes
=======================================================================

   base      :      30000. kBytes
   nonl-proj :      88128. kBytes
   fftplans  :       2338. kBytes
   grid      :       4206. kBytes
   one-center:         46. kBytes
   wavefun   :      49896. kBytes
 
  
  
 General timing and accounting informations for this job:
 ========================================================
  
                  Total CPU time used (sec):      358.856
                            User time (sec):      268.853
                          System time (sec):       90.003
                         Elapsed time (sec):      446.143
  
                   Maximum memory used (kb):      341748.
                   Average memory used (kb):           0.
  
                          Minor page faults:        72009
                          Major page faults:            0
                 Voluntary context switches:          665
