<?xml version="1.0" encoding="ISO-8859-1"?>
<modeling>
 <generator>
  <i name="program" type="string">vasp </i>
  <i name="version" type="string">5.4.4.18Apr17-6-g9f103f2a35  </i>
  <i name="subversion" type="string">(build Apr 13 2022 18:32:11) complex            parallel </i>
  <i name="platform" type="string">LinuxIFC </i>
  <i name="date" type="string">2024 07 14 </i>
  <i name="time" type="string">20:18:23 </i>
 </generator>
 <incar>
  <i type="int" name="ISTART">     0</i>
  <i type="string" name="PREC">accurate</i>
  <i type="string" name="ALGO"> F          N:DAV,fine,slow</i>
  <i type="int" name="ISPIN">     1</i>
  <i type="int" name="ICHARG">    11</i>
  <i type="int" name="NELM">   300</i>
  <i type="int" name="IBRION">    -1</i>
  <i name="EDIFF">      0.00001000</i>
  <i name="EDIFFG">     -0.00100000</i>
  <i type="int" name="NSW">     0</i>
  <i type="int" name="ISIF">     2</i>
  <i name="ENCUT">    400.00000000</i>
  <i type="int" name="ISMEAR">     0</i>
  <i name="SIGMA">      0.05000000</i>
  <i type="logical" name="LWAVE"> T  </i>
  <i type="logical" name="LCHARG"> F  </i>
  <v type="int" name="KPOINT_BSE">    -1     0     0     0</v>
  <i type="int" name="NELM">   300</i>
 </incar>
 <structure name="primitive_cell" >
  <crystal>
   <varray name="basis" >
    <v>       6.38063097       0.00000000       0.00000000 </v>
    <v>       3.19031401       5.52578936       0.00000000 </v>
    <v>       0.00000000       0.00000000      20.87900352 </v>
   </varray>
   <i name="volume">    736.15238097 </i>
   <varray name="rec_basis" >
    <v>       0.15672431      -0.09048477      -0.00000000 </v>
    <v>       0.00000000       0.18096962      -0.00000000 </v>
    <v>       0.00000000       0.00000000       0.04789501 </v>
   </varray>
  </crystal>
  <varray name="positions" >
   <v>       0.16666651       0.16666649       0.38133727 </v>
   <v>       0.33333351      -0.16666651       0.30638715 </v>
   <v>       0.33333351      -0.16666651       0.45628740 </v>
   <v>      -0.16666649       0.33333349       0.30638715 </v>
   <v>      -0.16666649       0.33333349       0.45628740 </v>
   <v>       0.33333351       0.33333349       0.30638715 </v>
   <v>       0.33333351       0.33333349       0.45628740 </v>
   <v>       0.16666651      -0.33333351       0.38133727 </v>
   <v>      -0.33333349       0.16666649       0.38133727 </v>
   <v>      -0.33333349      -0.33333351       0.38133727 </v>
   <v>      -0.16666649      -0.16666651       0.30638715 </v>
   <v>      -0.16666649      -0.16666651       0.45628740 </v>
   <v>       0.11111100       0.11111100      -0.30638715 </v>
   <v>       0.33333333       0.00000000      -0.30638715 </v>
   <v>       0.00000000       0.33333333      -0.30638715 </v>
   <v>       0.44444434       0.11111100      -0.30638715 </v>
   <v>       0.11111100       0.44444433      -0.30638715 </v>
   <v>       0.00000000       0.00000000      -0.30638715 </v>
   <v>       0.33333333       0.33333333      -0.30638715 </v>
   <v>       0.44444434      -0.22222234      -0.30638715 </v>
   <v>      -0.22222233       0.44444433      -0.30638715 </v>
   <v>       0.11111100      -0.22222234      -0.30638715 </v>
   <v>      -0.22222233       0.11111100      -0.30638715 </v>
   <v>       0.33333333      -0.33333333      -0.30638715 </v>
   <v>      -0.33333333       0.33333333      -0.30638715 </v>
   <v>      -0.33333333       0.00000000      -0.30638715 </v>
   <v>       0.00000000      -0.33333333      -0.30638715 </v>
   <v>       0.44444434       0.44444433      -0.30638715 </v>
   <v>      -0.33333333      -0.33333333      -0.30638715 </v>
   <v>      -0.22222233      -0.22222234      -0.30638715 </v>
  </varray>
 </structure>
 <varray name="primitive_index" >
  <v type="int" >        1 </v>
  <v type="int" >        7 </v>
  <v type="int" >       11 </v>
  <v type="int" >        6 </v>
  <v type="int" >       10 </v>
  <v type="int" >        5 </v>
  <v type="int" >        9 </v>
  <v type="int" >        3 </v>
  <v type="int" >        2 </v>
  <v type="int" >        4 </v>
  <v type="int" >        8 </v>
  <v type="int" >       12 </v>
  <v type="int" >       22 </v>
  <v type="int" >       14 </v>
  <v type="int" >       16 </v>
  <v type="int" >       23 </v>
  <v type="int" >       25 </v>
  <v type="int" >       13 </v>
  <v type="int" >       17 </v>
  <v type="int" >       29 </v>
  <v type="int" >       27 </v>
  <v type="int" >       28 </v>
  <v type="int" >       24 </v>
  <v type="int" >       20 </v>
  <v type="int" >       18 </v>
  <v type="int" >       15 </v>
  <v type="int" >       19 </v>
  <v type="int" >       26 </v>
  <v type="int" >       21 </v>
  <v type="int" >       30 </v>
 </varray>
 <kpoints>
  <generation param="listgenerated">
   <i name="divisions" type="int">      50 </i>
   <v>       0.00000000       0.00000000       0.00000000 </v>
   <v>       1.00000000       1.00000000       0.00000000 </v>
   <v>       0.66666667       1.33333333       0.00000000 </v>
   <v>       0.00000000       0.00000000       0.00000000 </v>
  </generation>
  <varray name="kpointlist" >
   <v>       0.00000000       0.00000000       0.00000000 </v>
   <v>       0.02040816       0.02040816       0.00000000 </v>
   <v>       0.04081633       0.04081633       0.00000000 </v>
   <v>       0.06122449       0.06122449       0.00000000 </v>
   <v>       0.08163265       0.08163265       0.00000000 </v>
   <v>       0.10204082       0.10204082       0.00000000 </v>
   <v>       0.12244898       0.12244898       0.00000000 </v>
   <v>       0.14285714       0.14285714       0.00000000 </v>
   <v>       0.16326531       0.16326531       0.00000000 </v>
   <v>       0.18367347       0.18367347       0.00000000 </v>
   <v>       0.20408163       0.20408163       0.00000000 </v>
   <v>       0.22448980       0.22448980       0.00000000 </v>
   <v>       0.24489796       0.24489796       0.00000000 </v>
   <v>       0.26530612       0.26530612       0.00000000 </v>
   <v>       0.28571429       0.28571429       0.00000000 </v>
   <v>       0.30612245       0.30612245       0.00000000 </v>
   <v>       0.32653061       0.32653061       0.00000000 </v>
   <v>       0.34693878       0.34693878       0.00000000 </v>
   <v>       0.36734694       0.36734694       0.00000000 </v>
   <v>       0.38775510       0.38775510       0.00000000 </v>
   <v>       0.40816327       0.40816327       0.00000000 </v>
   <v>       0.42857143       0.42857143       0.00000000 </v>
   <v>       0.44897959       0.44897959       0.00000000 </v>
   <v>       0.46938776       0.46938776       0.00000000 </v>
   <v>       0.48979592       0.48979592       0.00000000 </v>
   <v>       0.51020408       0.51020408       0.00000000 </v>
   <v>       0.53061224       0.53061224       0.00000000 </v>
   <v>       0.55102041       0.55102041       0.00000000 </v>
   <v>       0.57142857       0.57142857       0.00000000 </v>
   <v>       0.59183673       0.59183673       0.00000000 </v>
   <v>       0.61224490       0.61224490       0.00000000 </v>
   <v>       0.63265306       0.63265306       0.00000000 </v>
   <v>       0.65306122       0.65306122       0.00000000 </v>
   <v>       0.67346939       0.67346939       0.00000000 </v>
   <v>       0.69387755       0.69387755       0.00000000 </v>
   <v>       0.71428571       0.71428571       0.00000000 </v>
   <v>       0.73469388       0.73469388       0.00000000 </v>
   <v>       0.75510204       0.75510204       0.00000000 </v>
   <v>       0.77551020       0.77551020       0.00000000 </v>
   <v>       0.79591837       0.79591837       0.00000000 </v>
   <v>       0.81632653       0.81632653       0.00000000 </v>
   <v>       0.83673469       0.83673469       0.00000000 </v>
   <v>       0.85714286       0.85714286       0.00000000 </v>
   <v>       0.87755102       0.87755102       0.00000000 </v>
   <v>       0.89795918       0.89795918       0.00000000 </v>
   <v>       0.91836735       0.91836735       0.00000000 </v>
   <v>       0.93877551       0.93877551       0.00000000 </v>
   <v>       0.95918367       0.95918367       0.00000000 </v>
   <v>       0.97959184       0.97959184       0.00000000 </v>
   <v>       1.00000000       1.00000000       0.00000000 </v>
   <v>       1.00000000       1.00000000       0.00000000 </v>
   <v>       0.99319728       1.00680272       0.00000000 </v>
   <v>       0.98639456       1.01360544       0.00000000 </v>
   <v>       0.97959184       1.02040816       0.00000000 </v>
   <v>       0.97278912       1.02721088       0.00000000 </v>
   <v>       0.96598639       1.03401361       0.00000000 </v>
   <v>       0.95918367       1.04081633       0.00000000 </v>
   <v>       0.95238095       1.04761905       0.00000000 </v>
   <v>       0.94557823       1.05442177       0.00000000 </v>
   <v>       0.93877551       1.06122449       0.00000000 </v>
   <v>       0.93197279       1.06802721       0.00000000 </v>
   <v>       0.92517007       1.07482993       0.00000000 </v>
   <v>       0.91836735       1.08163265       0.00000000 </v>
   <v>       0.91156463       1.08843537       0.00000000 </v>
   <v>       0.90476190       1.09523810       0.00000000 </v>
   <v>       0.89795918       1.10204082       0.00000000 </v>
   <v>       0.89115646       1.10884354       0.00000000 </v>
   <v>       0.88435374       1.11564626       0.00000000 </v>
   <v>       0.87755102       1.12244898       0.00000000 </v>
   <v>       0.87074830       1.12925170       0.00000000 </v>
   <v>       0.86394558       1.13605442       0.00000000 </v>
   <v>       0.85714286       1.14285714       0.00000000 </v>
   <v>       0.85034014       1.14965986       0.00000000 </v>
   <v>       0.84353741       1.15646259       0.00000000 </v>
   <v>       0.83673469       1.16326531       0.00000000 </v>
   <v>       0.82993197       1.17006803       0.00000000 </v>
   <v>       0.82312925       1.17687075       0.00000000 </v>
   <v>       0.81632653       1.18367347       0.00000000 </v>
   <v>       0.80952381       1.19047619       0.00000000 </v>
   <v>       0.80272109       1.19727891       0.00000000 </v>
   <v>       0.79591837       1.20408163       0.00000000 </v>
   <v>       0.78911565       1.21088435       0.00000000 </v>
   <v>       0.78231293       1.21768707       0.00000000 </v>
   <v>       0.77551020       1.22448980       0.00000000 </v>
   <v>       0.76870748       1.23129252       0.00000000 </v>
   <v>       0.76190476       1.23809524       0.00000000 </v>
   <v>       0.75510204       1.24489796       0.00000000 </v>
   <v>       0.74829932       1.25170068       0.00000000 </v>
   <v>       0.74149660       1.25850340       0.00000000 </v>
   <v>       0.73469388       1.26530612       0.00000000 </v>
   <v>       0.72789116       1.27210884       0.00000000 </v>
   <v>       0.72108844       1.27891156       0.00000000 </v>
   <v>       0.71428571       1.28571429       0.00000000 </v>
   <v>       0.70748299       1.29251701       0.00000000 </v>
   <v>       0.70068027       1.29931973       0.00000000 </v>
   <v>       0.69387755       1.30612245       0.00000000 </v>
   <v>       0.68707483       1.31292517       0.00000000 </v>
   <v>       0.68027211       1.31972789       0.00000000 </v>
   <v>       0.67346939       1.32653061       0.00000000 </v>
   <v>       0.66666667       1.33333333       0.00000000 </v>
   <v>       0.66666667       1.33333333       0.00000000 </v>
   <v>       0.65306122       1.30612245       0.00000000 </v>
   <v>       0.63945578       1.27891156       0.00000000 </v>
   <v>       0.62585034       1.25170068       0.00000000 </v>
   <v>       0.61224490       1.22448980       0.00000000 </v>
   <v>       0.59863946       1.19727891       0.00000000 </v>
   <v>       0.58503401       1.17006803       0.00000000 </v>
   <v>       0.57142857       1.14285714       0.00000000 </v>
   <v>       0.55782313       1.11564626       0.00000000 </v>
   <v>       0.54421769       1.08843537       0.00000000 </v>
   <v>       0.53061224       1.06122449       0.00000000 </v>
   <v>       0.51700680       1.03401361       0.00000000 </v>
   <v>       0.50340136       1.00680272       0.00000000 </v>
   <v>       0.48979592       0.97959184       0.00000000 </v>
   <v>       0.47619048       0.95238095       0.00000000 </v>
   <v>       0.46258503       0.92517007       0.00000000 </v>
   <v>       0.44897959       0.89795918       0.00000000 </v>
   <v>       0.43537415       0.87074830       0.00000000 </v>
   <v>       0.42176871       0.84353741       0.00000000 </v>
   <v>       0.40816327       0.81632653       0.00000000 </v>
   <v>       0.39455782       0.78911565       0.00000000 </v>
   <v>       0.38095238       0.76190476       0.00000000 </v>
   <v>       0.36734694       0.73469388       0.00000000 </v>
   <v>       0.35374150       0.70748299       0.00000000 </v>
   <v>       0.34013605       0.68027211       0.00000000 </v>
   <v>       0.32653061       0.65306122       0.00000000 </v>
   <v>       0.31292517       0.62585034       0.00000000 </v>
   <v>       0.29931973       0.59863946       0.00000000 </v>
   <v>       0.28571429       0.57142857       0.00000000 </v>
   <v>       0.27210884       0.54421769       0.00000000 </v>
   <v>       0.25850340       0.51700680       0.00000000 </v>
   <v>       0.24489796       0.48979592       0.00000000 </v>
   <v>       0.23129252       0.46258503       0.00000000 </v>
   <v>       0.21768707       0.43537415       0.00000000 </v>
   <v>       0.20408163       0.40816327       0.00000000 </v>
   <v>       0.19047619       0.38095238       0.00000000 </v>
   <v>       0.17687075       0.35374150       0.00000000 </v>
   <v>       0.16326531       0.32653061       0.00000000 </v>
   <v>       0.14965986       0.29931973       0.00000000 </v>
   <v>       0.13605442       0.27210884       0.00000000 </v>
   <v>       0.12244898       0.24489796       0.00000000 </v>
   <v>       0.10884354       0.21768707       0.00000000 </v>
   <v>       0.09523810       0.19047619       0.00000000 </v>
   <v>       0.08163265       0.16326531       0.00000000 </v>
   <v>       0.06802721       0.13605442       0.00000000 </v>
   <v>       0.05442177       0.10884354       0.00000000 </v>
   <v>       0.04081633       0.08163265       0.00000000 </v>
   <v>       0.02721088       0.05442177       0.00000000 </v>
   <v>       0.01360544       0.02721088       0.00000000 </v>
   <v>       0.00000000       0.00000000       0.00000000 </v>
  </varray>
  <varray name="weights" >
   <v>       0.00666667 </v>
   <v>       0.00666667 </v>
   <v>       0.00666667 </v>
   <v>       0.00666667 </v>
   <v>       0.00666667 </v>
   <v>       0.00666667 </v>
   <v>       0.00666667 </v>
   <v>       0.00666667 </v>
   <v>       0.00666667 </v>
   <v>       0.00666667 </v>
   <v>       0.00666667 </v>
   <v>       0.00666667 </v>
   <v>       0.00666667 </v>
   <v>       0.00666667 </v>
   <v>       0.00666667 </v>
   <v>       0.00666667 </v>
   <v>       0.00666667 </v>
   <v>       0.00666667 </v>
   <v>       0.00666667 </v>
   <v>       0.00666667 </v>
   <v>       0.00666667 </v>
   <v>       0.00666667 </v>
   <v>       0.00666667 </v>
   <v>       0.00666667 </v>
   <v>       0.00666667 </v>
   <v>       0.00666667 </v>
   <v>       0.00666667 </v>
   <v>       0.00666667 </v>
   <v>       0.00666667 </v>
   <v>       0.00666667 </v>
   <v>       0.00666667 </v>
   <v>       0.00666667 </v>
   <v>       0.00666667 </v>
   <v>       0.00666667 </v>
   <v>       0.00666667 </v>
   <v>       0.00666667 </v>
   <v>       0.00666667 </v>
   <v>       0.00666667 </v>
   <v>       0.00666667 </v>
   <v>       0.00666667 </v>
   <v>       0.00666667 </v>
   <v>       0.00666667 </v>
   <v>       0.00666667 </v>
   <v>       0.00666667 </v>
   <v>       0.00666667 </v>
   <v>       0.00666667 </v>
   <v>       0.00666667 </v>
   <v>       0.00666667 </v>
   <v>       0.00666667 </v>
   <v>       0.00666667 </v>
   <v>       0.00666667 </v>
   <v>       0.00666667 </v>
   <v>       0.00666667 </v>
   <v>       0.00666667 </v>
   <v>       0.00666667 </v>
   <v>       0.00666667 </v>
   <v>       0.00666667 </v>
   <v>       0.00666667 </v>
   <v>       0.00666667 </v>
   <v>       0.00666667 </v>
   <v>       0.00666667 </v>
   <v>       0.00666667 </v>
   <v>       0.00666667 </v>
   <v>       0.00666667 </v>
   <v>       0.00666667 </v>
   <v>       0.00666667 </v>
   <v>       0.00666667 </v>
   <v>       0.00666667 </v>
   <v>       0.00666667 </v>
   <v>       0.00666667 </v>
   <v>       0.00666667 </v>
   <v>       0.00666667 </v>
   <v>       0.00666667 </v>
   <v>       0.00666667 </v>
   <v>       0.00666667 </v>
   <v>       0.00666667 </v>
   <v>       0.00666667 </v>
   <v>       0.00666667 </v>
   <v>       0.00666667 </v>
   <v>       0.00666667 </v>
   <v>       0.00666667 </v>
   <v>       0.00666667 </v>
   <v>       0.00666667 </v>
   <v>       0.00666667 </v>
   <v>       0.00666667 </v>
   <v>       0.00666667 </v>
   <v>       0.00666667 </v>
   <v>       0.00666667 </v>
   <v>       0.00666667 </v>
   <v>       0.00666667 </v>
   <v>       0.00666667 </v>
   <v>       0.00666667 </v>
   <v>       0.00666667 </v>
   <v>       0.00666667 </v>
   <v>       0.00666667 </v>
   <v>       0.00666667 </v>
   <v>       0.00666667 </v>
   <v>       0.00666667 </v>
   <v>       0.00666667 </v>
   <v>       0.00666667 </v>
   <v>       0.00666667 </v>
   <v>       0.00666667 </v>
   <v>       0.00666667 </v>
   <v>       0.00666667 </v>
   <v>       0.00666667 </v>
   <v>       0.00666667 </v>
   <v>       0.00666667 </v>
   <v>       0.00666667 </v>
   <v>       0.00666667 </v>
   <v>       0.00666667 </v>
   <v>       0.00666667 </v>
   <v>       0.00666667 </v>
   <v>       0.00666667 </v>
   <v>       0.00666667 </v>
   <v>       0.00666667 </v>
   <v>       0.00666667 </v>
   <v>       0.00666667 </v>
   <v>       0.00666667 </v>
   <v>       0.00666667 </v>
   <v>       0.00666667 </v>
   <v>       0.00666667 </v>
   <v>       0.00666667 </v>
   <v>       0.00666667 </v>
   <v>       0.00666667 </v>
   <v>       0.00666667 </v>
   <v>       0.00666667 </v>
   <v>       0.00666667 </v>
   <v>       0.00666667 </v>
   <v>       0.00666667 </v>
   <v>       0.00666667 </v>
   <v>       0.00666667 </v>
   <v>       0.00666667 </v>
   <v>       0.00666667 </v>
   <v>       0.00666667 </v>
   <v>       0.00666667 </v>
   <v>       0.00666667 </v>
   <v>       0.00666667 </v>
   <v>       0.00666667 </v>
   <v>       0.00666667 </v>
   <v>       0.00666667 </v>
   <v>       0.00666667 </v>
   <v>       0.00666667 </v>
   <v>       0.00666667 </v>
   <v>       0.00666667 </v>
   <v>       0.00666667 </v>
   <v>       0.00666667 </v>
   <v>       0.00666667 </v>
   <v>       0.00666667 </v>
   <v>       0.00666667 </v>
   <v>       0.00666667 </v>
  </varray>
 </kpoints>
 <parameters>
  <separator name="general" >
   <i type="string" name="SYSTEM"></i>
   <i type="logical" name="LCOMPAT"> F  </i>
  </separator>
  <separator name="electronic" >
   <i type="string" name="PREC">accura</i>
   <i name="ENMAX">    400.00000000</i>
   <i name="ENAUG">    644.87300000</i>
   <i name="EDIFF">      0.00001000</i>
   <i type="int" name="IALGO">    68</i>
   <i type="int" name="IWAVPR">    10</i>
   <i type="int" name="NBANDS">    90</i>
   <i name="NELECT">    144.00000000</i>
   <i type="int" name="TURBO">     0</i>
   <i type="int" name="IRESTART">     0</i>
   <i type="int" name="NREBOOT">     0</i>
   <i type="int" name="NMIN">     0</i>
   <i name="EREF">      0.00000000</i>
   <separator name="electronic smearing" >
    <i type="int" name="ISMEAR">     0</i>
    <i name="SIGMA">      0.05000000</i>
    <i name="KSPACING">      0.50000000</i>
    <i type="logical" name="KGAMMA"> T  </i>
   </separator>
   <separator name="electronic projectors" >
    <i type="logical" name="LREAL"> F  </i>
    <v name="ROPT">      0.00000000      0.00000000      0.00000000</v>
    <i type="int" name="LMAXPAW">  -100</i>
    <i type="int" name="LMAXMIX">     2</i>
    <i type="logical" name="NLSPLINE"> F  </i>
   </separator>
   <separator name="electronic startup" >
    <i type="int" name="ISTART">     0</i>
    <i type="int" name="ICHARG">    11</i>
    <i type="int" name="INIWAV">     1</i>
   </separator>
   <separator name="electronic spin" >
    <i type="int" name="ISPIN">     1</i>
    <i type="logical" name="LNONCOLLINEAR"> F  </i>
    <v name="MAGMOM">      1.00000000      1.00000000      1.00000000      1.00000000      1.00000000      1.00000000      1.00000000      1.00000000      1.00000000      1.00000000      1.00000000      1.00000000      1.00000000      1.00000000      1.00000000      1.00000000      1.00000000      1.00000000      1.00000000      1.00000000
      1.00000000      1.00000000      1.00000000      1.00000000      1.00000000      1.00000000      1.00000000      1.00000000      1.00000000      1.00000000</v>
    <i name="NUPDOWN">     -1.00000000</i>
    <i type="logical" name="LSORBIT"> F  </i>
    <v name="SAXIS">      0.00000000      0.00000000      1.00000000</v>
    <i type="logical" name="LSPIRAL"> F  </i>
    <v name="QSPIRAL">      0.00000000      0.00000000      0.00000000</v>
    <i type="logical" name="LZEROZ"> F  </i>
   </separator>
   <separator name="electronic exchange-correlation" >
    <i type="logical" name="LASPH"> F  </i>
    <i type="logical" name="LMETAGGA"> F  </i>
   </separator>
   <separator name="electronic convergence" >
    <i type="int" name="NELM">   300</i>
    <i type="int" name="NELMDL">    -5</i>
    <i type="int" name="NELMIN">     2</i>
    <i name="ENINI">    400.00000000</i>
    <separator name="electronic convergence detail" >
     <i type="logical" name="LDIAG"> T  </i>
     <i type="logical" name="LSUBROT"> F  </i>
     <i name="WEIMIN">      0.00000000</i>
     <i name="EBREAK">      0.00000003</i>
     <i name="DEPER">      0.30000000</i>
     <i type="int" name="NRMM">     4</i>
     <i name="TIME">      0.40000000</i>
    </separator>
   </separator>
   <separator name="electronic mixer" >
    <i name="AMIX">      0.40000000</i>
    <i name="BMIX">      1.00000000</i>
    <i name="AMIN">      0.10000000</i>
    <i name="AMIX_MAG">      1.60000000</i>
    <i name="BMIX_MAG">      1.00000000</i>
    <separator name="electronic mixer details" >
     <i type="int" name="IMIX">     4</i>
     <i type="logical" name="MIXFIRST"> F  </i>
     <i type="int" name="MAXMIX">   -45</i>
     <i name="WC">    100.00000000</i>
     <i type="int" name="INIMIX">     1</i>
     <i type="int" name="MIXPRE">     1</i>
     <i type="int" name="MREMOVE">     5</i>
    </separator>
   </separator>
   <separator name="electronic dipolcorrection" >
    <i type="logical" name="LDIPOL"> F  </i>
    <i type="logical" name="LMONO"> F  </i>
    <i type="int" name="IDIPOL">     0</i>
    <i name="EPSILON">      1.00000000</i>
    <v name="DIPOL">   -100.00000000   -100.00000000   -100.00000000</v>
    <i name="EFIELD">      0.00000000</i>
   </separator>
  </separator>
  <separator name="grids" >
   <i type="int" name="NGX">    42</i>
   <i type="int" name="NGY">    42</i>
   <i type="int" name="NGZ">   140</i>
   <i type="int" name="NGXF">    84</i>
   <i type="int" name="NGYF">    84</i>
   <i type="int" name="NGZF">   280</i>
   <i type="logical" name="ADDGRID"> F  </i>
  </separator>
  <separator name="ionic" >
   <i type="int" name="NSW">     0</i>
   <i type="int" name="IBRION">    -1</i>
   <i type="int" name="MDALGO">     0</i>
   <i type="int" name="ISIF">     2</i>
   <i name="PSTRESS">      0.00000000</i>
   <i name="EDIFFG">     -0.00100000</i>
   <i type="int" name="NFREE">     0</i>
   <i name="POTIM">      0.50000000</i>
   <i name="SMASS">     -3.00000000</i>
   <i name="SCALEE">      1.00000000</i>
  </separator>
  <separator name="ionic md" >
   <i name="TEBEG">      0.00010000</i>
   <i name="TEEND">      0.00010000</i>
   <i type="int" name="NBLOCK">     1</i>
   <i type="int" name="KBLOCK">     1</i>
   <i type="int" name="NPACO">   256</i>
   <i name="APACO">     16.00000000</i>
  </separator>
  <separator name="symmetry" >
   <i type="int" name="ISYM">     2</i>
   <i name="SYMPREC">      0.00001000</i>
  </separator>
  <separator name="dos" >
   <i type="int" name="LORBIT">     0</i>
   <v name="RWIGS">     -1.00000000     -1.00000000     -1.00000000</v>
   <i type="int" name="NEDOS">   301</i>
   <i name="EMIN">     10.00000000</i>
   <i name="EMAX">    -10.00000000</i>
   <i name="EFERMI">      0.00000000</i>
  </separator>
  <separator name="writing" >
   <i type="int" name="NWRITE">     2</i>
   <i type="logical" name="LWAVE"> T  </i>
   <i type="logical" name="LDOWNSAMPLE"> F  </i>
   <i type="logical" name="LCHARG"> F  </i>
   <i type="logical" name="LPARD"> F  </i>
   <i type="logical" name="LVTOT"> F  </i>
   <i type="logical" name="LVHAR"> F  </i>
   <i type="logical" name="LELF"> F  </i>
   <i type="logical" name="LOPTICS"> F  </i>
   <v name="STM">      0.00000000      0.00000000      0.00000000      0.00000000      0.00000000      0.00000000      0.00000000</v>
  </separator>
  <separator name="performance" >
   <i type="int" name="NPAR">     6</i>
   <i type="int" name="NSIM">     4</i>
   <i type="int" name="NBLK">    -1</i>
   <i type="logical" name="LPLANE"> T  </i>
   <i type="logical" name="LSCALAPACK"> T  </i>
   <i type="logical" name="LSCAAWARE"> F  </i>
   <i type="logical" name="LSCALU"> F  </i>
   <i type="logical" name="LASYNC"> F  </i>
   <i type="logical" name="LORBITALREAL"> F  </i>
  </separator>
  <separator name="miscellaneous" >
   <i type="int" name="IDIOT">     3</i>
   <i type="int" name="ISPECIAL">     0</i>
   <i type="logical" name="LMUSIC"> F  </i>
   <v name="POMASS">     95.94000000     32.06600000     12.01100000</v>
   <v name="DARWINR">      0.00000000      0.00000000      0.00000000</v>
   <v name="DARWINV">      1.00000000      1.00000000      1.00000000</v>
   <i type="logical" name="LCORR"> T  </i>
  </separator>
  <i type="logical" name="GGA_COMPAT"> T  </i>
  <i type="logical" name="LBERRY"> F  </i>
  <i type="int" name="ICORELEVEL">     0</i>
  <i type="logical" name="LDAU"> F  </i>
  <i type="int" name="I_CONSTRAINED_M">     0</i>
  <separator name="electronic exchange-correlation" >
   <i type="string" name="GGA">--</i>
   <i type="int" name="VOSKOWN">     0</i>
   <i type="logical" name="LHFCALC"> F  </i>
   <i type="string" name="PRECFOCK"></i>
   <i type="logical" name="LSYMGRAD"> F  </i>
   <i type="logical" name="LHFONE"> F  </i>
   <i type="logical" name="LRHFCALC"> F  </i>
   <i type="logical" name="LTHOMAS"> F  </i>
   <i type="logical" name="LMODELHF"> F  </i>
   <i name="ENCUT4O">     -1.00000000</i>
   <i type="int" name="EXXOEP">     0</i>
   <i type="int" name="FOURORBIT">     0</i>
   <i name="AEXX">      0.00000000</i>
   <i name="HFALPHA">      0.00000000</i>
   <i name="MCALPHA">      0.00000000</i>
   <i name="ALDAX">      1.00000000</i>
   <i name="AGGAX">      1.00000000</i>
   <i name="ALDAC">      1.00000000</i>
   <i name="AGGAC">      1.00000000</i>
   <i type="int" name="NKREDX">     1</i>
   <i type="int" name="NKREDY">     1</i>
   <i type="int" name="NKREDZ">     1</i>
   <i type="logical" name="SHIFTRED"> F  </i>
   <i type="logical" name="ODDONLY"> F  </i>
   <i type="logical" name="EVENONLY"> F  </i>
   <i type="int" name="LMAXFOCK">     0</i>
   <i type="int" name="NMAXFOCKAE">     0</i>
   <i type="logical" name="LFOCKAEDFT"> F  </i>
   <i name="HFSCREEN">      0.00000000</i>
   <i name="HFSCREENC">      0.00000000</i>
   <i type="int" name="NBANDSGWLOW">     0</i>
  </separator>
  <separator name="vdW DFT" >
   <i type="logical" name="LUSE_VDW"> F  </i>
   <i name="Zab_VDW">     -0.84910000</i>
   <i name="PARAM1">      0.12340000</i>
   <i name="PARAM2">      1.00000000</i>
   <i name="PARAM3">      0.00000000</i>
  </separator>
  <separator name="model GW" >
   <i type="int" name="MODEL_GW">     0</i>
   <i name="MODEL_EPS0">     14.72304762</i>
   <i name="MODEL_ALPHA">      1.00000000</i>
  </separator>
  <separator name="linear response parameters" >
   <i type="logical" name="LEPSILON"> F  </i>
   <i type="logical" name="LRPA"> F  </i>
   <i type="logical" name="LNABLA"> F  </i>
   <i type="logical" name="LVEL"> F  </i>
   <i type="int" name="KINTER">     0</i>
   <i name="CSHIFT">      0.10000000</i>
   <i name="OMEGAMAX">     -1.00000000</i>
   <i name="DEG_THRESHOLD">      0.00200000</i>
   <i name="RTIME">     -0.10000000</i>
   <i name="WPLASMAI">      0.00000000</i>
   <v name="DFIELD">      0.00000000      0.00000000      0.00000000</v>
   <v name="WPLASMA">      0.00000000      0.00000000      0.00000000      0.00000000      0.00000000      0.00000000      0.00000000      0.00000000      0.00000000</v>
  </separator>
  <separator name="orbital magnetization" >
   <i type="logical" name="NUCIND"> F  </i>
   <v name="MAGPOS">      0.00000000      0.00000000      0.00000000</v>
   <i type="logical" name="LNICSALL"> T  </i>
   <i type="logical" name="ORBITALMAG"> F  </i>
   <i type="logical" name="LMAGBLOCH"> F  </i>
   <i type="logical" name="LCHIMAG"> F  </i>
   <i type="logical" name="LGAUGE"> T  </i>
   <i type="int" name="MAGATOM">     0</i>
   <v name="MAGDIPOL">      0.00000000      0.00000000      0.00000000</v>
   <v name="AVECCONST">      0.00000000      0.00000000      0.00000000</v>
  </separator>
  <separator name="response functions" >
   <i type="logical" name="LADDER"> F  </i>
   <i type="logical" name="LRPAFORCE"> F  </i>
   <i type="logical" name="LFXC"> F  </i>
   <i type="logical" name="LHARTREE"> T  </i>
   <i type="int" name="IBSE">     0</i>
   <v type="int" name="KPOINT">    -1     0     0     0</v>
   <i type="logical" name="LTCTE"> F  </i>
   <i type="logical" name="LTETE"> F  </i>
   <i type="logical" name="LTRIPLET"> F  </i>
   <i type="logical" name="LFXCEPS"> F  </i>
   <i type="logical" name="LFXHEG"> F  </i>
   <i type="int" name="NATURALO">     2</i>
   <i type="logical" name="L2ORDER"> F  </i>
   <i type="logical" name="LMP2LT"> F  </i>
   <i type="logical" name="LUSEW"> F  </i>
   <i name="ENCUTGW">     -2.00000000</i>
   <i name="ENCUTGWSOFT">     -2.00000000</i>
   <i name="ENCUTLF">     -1.00000000</i>
   <i type="int" name="LMAXMP2">    -1</i>
   <i name="SCISSOR">      0.00000000</i>
   <i type="int" name="NOMEGA">     0</i>
   <i type="int" name="NOMEGAR">     0</i>
   <i type="int" name="NBANDSGW">    -1</i>
   <i type="int" name="NBANDSO">    -1</i>
   <i type="int" name="NBANDSV">    -1</i>
   <i type="int" name="NELM">   300</i>
   <i type="int" name="NELMHF">     1</i>
   <i type="int" name="DIM">     3</i>
   <i type="int" name="ANTIRES">     0</i>
   <i name="OMEGAMAX">    -30.00000000</i>
   <i name="OMEGAMIN">    -30.00000000</i>
   <i name="OMEGATL">   -200.00000000</i>
   <i type="int" name="OMEGAGRID">   140</i>
   <i name="CSHIFT">     -0.10000000</i>
   <i type="logical" name="SELFENERGY"> F  </i>
   <i type="logical" name="LSPECTRAL"> F  </i>
   <i type="logical" name="LSPECTRALGW"> F  </i>
   <i type="logical" name="LSINGLES"> F  </i>
   <i type="logical" name="LFERMIGW"> F  </i>
   <i type="logical" name="ODDONLYGW"> F  </i>
   <i type="logical" name="EVENONLYGW"> F  </i>
   <i type="int" name="NKREDLFX">     1</i>
   <i type="int" name="NKREDLFY">     1</i>
   <i type="int" name="NKREDLFZ">     1</i>
   <i type="int" name="MAXMEM">  2800</i>
   <i type="int" name="TELESCOPE">     0</i>
   <i type="int" name="TAUPAR">     1</i>
   <i type="int" name="OMEGAPAR">    -1</i>
   <i name="LAMBDA">      1.00000000</i>
  </separator>
  <separator name="External order field" >
   <i name="OFIELD_KAPPA">      0.00000000</i>
   <v name="OFIELD_K">      0.00000000      0.00000000      0.00000000</v>
   <i name="OFIELD_Q6_NEAR">      0.00000000</i>
   <i name="OFIELD_Q6_FAR">      0.00000000</i>
   <i name="OFIELD_A">      0.00000000</i>
  </separator>
 </parameters>
 <atominfo>
  <atoms>      30 </atoms>
  <types>       3 </types>
  <array name="atoms" >
   <dimension dim="1">ion</dimension>
   <field type="string">element</field>
   <field type="int">atomtype</field>
   <set>
    <rc><c>Mo</c><c>   1</c></rc>
    <rc><c>Mo</c><c>   1</c></rc>
    <rc><c>Mo</c><c>   1</c></rc>
    <rc><c>Mo</c><c>   1</c></rc>
    <rc><c>S </c><c>   2</c></rc>
    <rc><c>S </c><c>   2</c></rc>
    <rc><c>S </c><c>   2</c></rc>
    <rc><c>S </c><c>   2</c></rc>
    <rc><c>S </c><c>   2</c></rc>
    <rc><c>S </c><c>   2</c></rc>
    <rc><c>S </c><c>   2</c></rc>
    <rc><c>S </c><c>   2</c></rc>
    <rc><c>C </c><c>   3</c></rc>
    <rc><c>C </c><c>   3</c></rc>
    <rc><c>C </c><c>   3</c></rc>
    <rc><c>C </c><c>   3</c></rc>
    <rc><c>C </c><c>   3</c></rc>
    <rc><c>C </c><c>   3</c></rc>
    <rc><c>C </c><c>   3</c></rc>
    <rc><c>C </c><c>   3</c></rc>
    <rc><c>C </c><c>   3</c></rc>
    <rc><c>C </c><c>   3</c></rc>
    <rc><c>C </c><c>   3</c></rc>
    <rc><c>C </c><c>   3</c></rc>
    <rc><c>C </c><c>   3</c></rc>
    <rc><c>C </c><c>   3</c></rc>
    <rc><c>C </c><c>   3</c></rc>
    <rc><c>C </c><c>   3</c></rc>
    <rc><c>C </c><c>   3</c></rc>
    <rc><c>C </c><c>   3</c></rc>
   </set>
  </array>
  <array name="atomtypes" >
   <dimension dim="1">type</dimension>
   <field type="int">atomspertype</field>
   <field type="string">element</field>
   <field>mass</field>
   <field>valence</field>
   <field type="string">pseudopotential</field>
   <set>
    <rc><c>   4</c><c>Mo</c><c>     95.94000000</c><c>      6.00000000</c><c>  PAW_PBE Mo 08Apr2002                  </c></rc>
    <rc><c>   8</c><c>S </c><c>     32.06600000</c><c>      6.00000000</c><c>  PAW_PBE S 06Sep2000                   </c></rc>
    <rc><c>  18</c><c>C </c><c>     12.01100000</c><c>      4.00000000</c><c>  PAW_PBE C 08Apr2002                   </c></rc>
   </set>
  </array>
 </atominfo>
 <structure name="initialpos" >
  <crystal>
   <varray name="basis" >
    <v>       6.38063097       0.00000000       0.00000000 </v>
    <v>       3.19031401       5.52578936       0.00000000 </v>
    <v>       0.00000000       0.00000000      20.87900352 </v>
   </varray>
   <i name="volume">    736.15238097 </i>
   <varray name="rec_basis" >
    <v>       0.15672431      -0.09048477      -0.00000000 </v>
    <v>       0.00000000       0.18096962      -0.00000000 </v>
    <v>       0.00000000       0.00000000       0.04789501 </v>
   </varray>
  </crystal>
  <varray name="positions" >
   <v>       0.16666651       0.16666649       0.38133727 </v>
   <v>       0.66666651       0.16666649       0.38133727 </v>
   <v>       0.16666651       0.66666649       0.38133727 </v>
   <v>       0.66666651       0.66666649       0.38133727 </v>
   <v>       0.33333351       0.33333349       0.30638715 </v>
   <v>       0.83333351       0.33333349       0.30638715 </v>
   <v>       0.33333351       0.83333349       0.30638715 </v>
   <v>       0.83333351       0.83333349       0.30638715 </v>
   <v>       0.33333351       0.33333349       0.45628740 </v>
   <v>       0.83333351       0.33333349       0.45628740 </v>
   <v>       0.33333351       0.83333349       0.45628740 </v>
   <v>       0.83333351       0.83333349       0.45628740 </v>
   <v>       0.00000000       0.00000000       0.69361285 </v>
   <v>       0.33333333       0.00000000       0.69361285 </v>
   <v>       0.66666667       0.00000000       0.69361285 </v>
   <v>       0.00000000       0.33333333       0.69361285 </v>
   <v>       0.33333333       0.33333333       0.69361285 </v>
   <v>       0.66666667       0.33333333       0.69361285 </v>
   <v>       0.00000000       0.66666667       0.69361285 </v>
   <v>       0.33333333       0.66666667       0.69361285 </v>
   <v>       0.66666667       0.66666667       0.69361285 </v>
   <v>       0.11111100       0.11111100       0.69361285 </v>
   <v>       0.44444434       0.11111100       0.69361285 </v>
   <v>       0.77777767       0.11111100       0.69361285 </v>
   <v>       0.11111100       0.44444433       0.69361285 </v>
   <v>       0.44444434       0.44444433       0.69361285 </v>
   <v>       0.77777767       0.44444433       0.69361285 </v>
   <v>       0.11111100       0.77777766       0.69361285 </v>
   <v>       0.44444434       0.77777766       0.69361285 </v>
   <v>       0.77777767       0.77777766       0.69361285 </v>
  </varray>
 </structure>
 <calculation>
  <scstep>
   <time name="dav">   11.80   12.01</time>
   <time name="total">   11.83   12.05</time>
   <energy>
    <i name="alphaZ">    201.19316853 </i>
    <i name="ewald">  15942.61586675 </i>
    <i name="hartreedc"> -21440.30548841 </i>
    <i name="XCdc">    133.37816219 </i>
    <i name="pawpsdc">  21967.05406803 </i>
    <i name="pawaedc"> -21678.85461905 </i>
    <i name="eentropy">     -0.01023141 </i>
    <i name="bandstr">    128.29282243 </i>
    <i name="atom">   5732.89781016 </i>
    <i name="e_fr_energy">    986.26155923 </i>
    <i name="e_wo_entrp">    986.27179063 </i>
    <i name="e_0_energy">    986.26667493 </i>
   </energy>
  </scstep>
  <scstep>
   <time name="dav">   99.60  146.06</time>
   <time name="total">   99.61  146.07</time>
   <energy>
    <i name="e_fr_energy">    -79.92029949 </i>
    <i name="e_wo_entrp">    -79.90585943 </i>
    <i name="e_0_energy">    -79.91307946 </i>
   </energy>
  </scstep>
  <scstep>
   <time name="dav">   35.92   40.42</time>
   <time name="total">   35.92   40.42</time>
   <energy>
    <i name="e_fr_energy">   -212.94377378 </i>
    <i name="e_wo_entrp">   -212.94045264 </i>
    <i name="e_0_energy">   -212.94211321 </i>
   </energy>
  </scstep>
  <scstep>
   <time name="dav">   37.08   43.74</time>
   <time name="total">   37.09   43.74</time>
   <energy>
    <i name="e_fr_energy">   -217.94463196 </i>
    <i name="e_wo_entrp">   -217.94031051 </i>
    <i name="e_0_energy">   -217.94247124 </i>
   </energy>
  </scstep>
  <scstep>
   <time name="dav">   39.48   45.90</time>
   <time name="total">   39.48   45.90</time>
   <energy>
    <i name="e_fr_energy">   -218.08534897 </i>
    <i name="e_wo_entrp">   -218.08095932 </i>
    <i name="e_0_energy">   -218.08315414 </i>
   </energy>
  </scstep>
  <scstep>
   <time name="diag">    6.86    7.03</time>
   <time name="diis">   16.74   17.49</time>
   <time name="orth">    0.63    0.63</time>
   <time name="total">   24.24   25.16</time>
   <energy>
    <i name="e_fr_energy">   -218.08853770 </i>
    <i name="e_wo_entrp">   -218.08415092 </i>
    <i name="e_0_energy">   -218.08634431 </i>
   </energy>
  </scstep>
  <scstep>
   <time name="diag">    4.28    6.72</time>
   <time name="diis">   22.94   25.66</time>
   <time name="orth">    0.95    1.91</time>
   <time name="total">   28.18   34.29</time>
   <energy>
    <i name="e_fr_energy">   -218.08923673 </i>
    <i name="e_wo_entrp">   -218.08485230 </i>
    <i name="e_0_energy">   -218.08704452 </i>
   </energy>
  </scstep>
  <scstep>
   <time name="diag">    4.17    6.71</time>
   <time name="diis">   12.45   13.70</time>
   <time name="orth">    0.52    0.82</time>
   <time name="total">   17.14   21.24</time>
   <energy>
    <i name="e_fr_energy">   -218.08927205 </i>
    <i name="e_wo_entrp">   -218.08488806 </i>
    <i name="e_0_energy">   -218.08708005 </i>
   </energy>
  </scstep>
  <scstep>
   <time name="diag">    4.74    6.18</time>
   <time name="diis">   13.00   13.85</time>
   <time name="orth">    0.26    0.26</time>
   <time name="total">   18.01   20.30</time>
   <energy>
    <i name="alphaZ">    201.19316853 </i>
    <i name="ewald">  15942.61586675 </i>
    <i name="hartreedc"> -21440.30548841 </i>
    <i name="XCdc">    133.37816219 </i>
    <i name="pawpsdc">  21967.05406803 </i>
    <i name="pawaedc"> -21678.85461905 </i>
    <i name="eentropy">     -0.00438396 </i>
    <i name="bandstr">  -1076.06385943 </i>
    <i name="atom">   5732.89781016 </i>
    <i name="e_fr_energy">   -218.08927518 </i>
    <i name="e_wo_entrp">   -218.08489122 </i>
    <i name="e_0_energy">   -218.08708320 </i>
   </energy>
  </scstep>
  <structure>
   <crystal>
    <varray name="basis" >
     <v>       6.38063097       0.00000000       0.00000000 </v>
     <v>       3.19031401       5.52578936       0.00000000 </v>
     <v>       0.00000000       0.00000000      20.87900352 </v>
    </varray>
    <i name="volume">    736.15238097 </i>
    <varray name="rec_basis" >
     <v>       0.15672431      -0.09048477      -0.00000000 </v>
     <v>       0.00000000       0.18096962      -0.00000000 </v>
     <v>       0.00000000       0.00000000       0.04789501 </v>
    </varray>
   </crystal>
   <varray name="positions" >
    <v>       0.16666651       0.16666649       0.38133727 </v>
    <v>       0.66666651       0.16666649       0.38133727 </v>
    <v>       0.16666651       0.66666649       0.38133727 </v>
    <v>       0.66666651       0.66666649       0.38133727 </v>
    <v>       0.33333351       0.33333349       0.30638715 </v>
    <v>       0.83333351       0.33333349       0.30638715 </v>
    <v>       0.33333351       0.83333349       0.30638715 </v>
    <v>       0.83333351       0.83333349       0.30638715 </v>
    <v>       0.33333351       0.33333349       0.45628740 </v>
    <v>       0.83333351       0.33333349       0.45628740 </v>
    <v>       0.33333351       0.83333349       0.45628740 </v>
    <v>       0.83333351       0.83333349       0.45628740 </v>
    <v>       0.00000000       0.00000000       0.69361285 </v>
    <v>       0.33333333       0.00000000       0.69361285 </v>
    <v>       0.66666667       0.00000000       0.69361285 </v>
    <v>       0.00000000       0.33333333       0.69361285 </v>
    <v>       0.33333333       0.33333333       0.69361285 </v>
    <v>       0.66666667       0.33333333       0.69361285 </v>
    <v>       0.00000000       0.66666667       0.69361285 </v>
    <v>       0.33333333       0.66666667       0.69361285 </v>
    <v>       0.66666667       0.66666667       0.69361285 </v>
    <v>       0.11111100       0.11111100       0.69361285 </v>
    <v>       0.44444434       0.11111100       0.69361285 </v>
    <v>       0.77777767       0.11111100       0.69361285 </v>
    <v>       0.11111100       0.44444433       0.69361285 </v>
    <v>       0.44444434       0.44444433       0.69361285 </v>
    <v>       0.77777767       0.44444433       0.69361285 </v>
    <v>       0.11111100       0.77777766       0.69361285 </v>
    <v>       0.44444434       0.77777766       0.69361285 </v>
    <v>       0.77777767       0.77777766       0.69361285 </v>
   </varray>
  </structure>
  <varray name="forces" >
   <v>       0.00003402       0.00001964       0.01806250 </v>
   <v>      -0.00003402       0.00001964       0.01806250 </v>
   <v>       0.00000000      -0.00003928       0.01806250 </v>
   <v>       0.00000000       0.00000000       0.01804120 </v>
   <v>       0.00000000       0.00000000       0.05007223 </v>
   <v>      -0.00000000       0.00001093       0.05006805 </v>
   <v>       0.00000947      -0.00000546       0.05006805 </v>
   <v>      -0.00000947      -0.00000546       0.05006805 </v>
   <v>      -0.00000000      -0.00000000      -0.05803530 </v>
   <v>       0.00000000      -0.00000643      -0.05800556 </v>
   <v>      -0.00000557       0.00000321      -0.05800556 </v>
   <v>       0.00000557       0.00000321      -0.05800556 </v>
   <v>      -0.00000000      -0.00000000      -0.00250780 </v>
   <v>      -0.00032415      -0.00014409      -0.00237960 </v>
   <v>       0.00032415      -0.00014409      -0.00237960 </v>
   <v>      -0.00028686      -0.00020867      -0.00237960 </v>
   <v>      -0.00000000      -0.00000000      -0.00258131 </v>
   <v>       0.00028686      -0.00020867      -0.00237960 </v>
   <v>       0.00003729       0.00035277      -0.00237960 </v>
   <v>      -0.00003729       0.00035277      -0.00237960 </v>
   <v>      -0.00000000      -0.00000000      -0.00211124 </v>
   <v>      -0.00014339      -0.00008278      -0.00211594 </v>
   <v>      -0.00000000       0.00035100      -0.00195577 </v>
   <v>       0.00014339      -0.00008278      -0.00211594 </v>
   <v>       0.00030398      -0.00017550      -0.00195577 </v>
   <v>      -0.00030398      -0.00017550      -0.00195577 </v>
   <v>       0.00000000      -0.00050044      -0.00225333 </v>
   <v>      -0.00000000       0.00016557      -0.00211594 </v>
   <v>      -0.00043339       0.00025022      -0.00225333 </v>
   <v>       0.00043339       0.00025022      -0.00225333 </v>
  </varray>
  <varray name="stress" >
   <v>     549.50586111      -0.00014634      -0.00000000 </v>
   <v>      -0.00014634     549.50603009      -0.00000000 </v>
   <v>      -0.00000000      -0.00000000      -9.48208955 </v>
  </varray>
  <energy>
   <i name="e_fr_energy">   -218.08927518 </i>
   <i name="e_wo_entrp">   -218.08708320 </i>
   <i name="e_0_energy">     -0.00438396 </i>
  </energy>
  <time name="totalsc">  350.16  435.75</time>
  <eigenvalues>
   <array>
    <dimension dim="1">band</dimension>
    <dimension dim="2">kpoint</dimension>
    <dimension dim="3">spin</dimension>
    <field>eigene</field>
    <field>occ</field>
    <set>
     <set comment="spin 1">
      <set comment="kpoint 1">
       <r>  -21.9530    1.0000 </r>
       <r>  -18.6690    1.0000 </r>
       <r>  -18.6690    1.0000 </r>
       <r>  -18.6689    1.0000 </r>
       <r>  -18.6689    1.0000 </r>
       <r>  -18.6688    1.0000 </r>
       <r>  -18.6688    1.0000 </r>
       <r>  -14.4742    1.0000 </r>
       <r>  -13.2727    1.0000 </r>
       <r>  -12.8529    1.0000 </r>
       <r>  -12.8529    1.0000 </r>
       <r>  -12.6882    1.0000 </r>
       <r>  -12.6882    1.0000 </r>
       <r>  -12.6882    1.0000 </r>
       <r>  -12.4427    1.0000 </r>
       <r>  -12.4427    1.0000 </r>
       <r>  -12.4427    1.0000 </r>
       <r>  -12.3961    1.0000 </r>
       <r>  -12.3961    1.0000 </r>
       <r>  -12.3960    1.0000 </r>
       <r>  -12.3960    1.0000 </r>
       <r>   -9.7135    1.0000 </r>
       <r>   -9.4896    1.0000 </r>
       <r>   -9.4895    1.0000 </r>
       <r>   -9.4895    1.0000 </r>
       <r>   -9.4895    1.0000 </r>
       <r>   -9.4895    1.0000 </r>
       <r>   -9.4895    1.0000 </r>
       <r>   -6.1531    1.0000 </r>
       <r>   -6.1531    1.0000 </r>
       <r>   -6.1531    1.0000 </r>
       <r>   -6.0059    1.0000 </r>
       <r>   -5.4240    1.0000 </r>
       <r>   -5.4239    1.0000 </r>
       <r>   -5.4238    1.0000 </r>
       <r>   -5.4237    1.0000 </r>
       <r>   -5.4235    1.0000 </r>
       <r>   -5.4234    1.0000 </r>
       <r>   -5.2936    1.0000 </r>
       <r>   -5.2936    1.0000 </r>
       <r>   -5.2935    1.0000 </r>
       <r>   -5.2935    1.0000 </r>
       <r>   -5.2934    1.0000 </r>
       <r>   -5.2934    1.0000 </r>
       <r>   -5.1969    1.0000 </r>
       <r>   -5.1969    1.0000 </r>
       <r>   -5.1969    1.0000 </r>
       <r>   -4.4899    1.0000 </r>
       <r>   -4.4899    1.0000 </r>
       <r>   -4.4899    1.0000 </r>
       <r>   -3.5603    1.0000 </r>
       <r>   -3.5603    1.0000 </r>
       <r>   -3.5603    1.0000 </r>
       <r>   -3.0184    1.0000 </r>
       <r>   -3.0184    1.0000 </r>
       <r>   -2.3163    1.0000 </r>
       <r>   -2.3163    1.0000 </r>
       <r>   -2.3163    1.0000 </r>
       <r>   -2.2209    1.0000 </r>
       <r>   -1.9077    1.0000 </r>
       <r>   -1.9076    1.0000 </r>
       <r>   -1.3941    1.0000 </r>
       <r>   -1.3941    1.0000 </r>
       <r>   -1.3941    1.0000 </r>
       <r>   -1.1447    1.0000 </r>
       <r>   -1.1446    1.0000 </r>
       <r>   -1.0710    1.0000 </r>
       <r>   -1.0710    1.0000 </r>
       <r>   -1.0710    1.0000 </r>
       <r>   -0.4730    1.0000 </r>
       <r>    1.3918    0.0001 </r>
       <r>    1.3918    0.0001 </r>
       <r>    1.3918    0.0001 </r>
       <r>    1.3918    0.0001 </r>
       <r>    1.7537    0.0000 </r>
       <r>    1.7537    0.0000 </r>
       <r>    1.7537    0.0000 </r>
       <r>    2.2617    0.0000 </r>
       <r>    2.2617    0.0000 </r>
       <r>    2.2617    0.0000 </r>
       <r>    2.3308    0.0000 </r>
       <r>    2.3308    0.0000 </r>
       <r>    2.5460    0.0000 </r>
       <r>    2.5460    0.0000 </r>
       <r>    3.3908    0.0000 </r>
       <r>    3.4467    0.0000 </r>
       <r>    3.4478    0.0000 </r>
       <r>    3.4781    0.0000 </r>
       <r>    3.8105    0.0000 </r>
       <r>    3.9167    0.0000 </r>
      </set>
      <set comment="kpoint 2">
       <r>  -21.9516    1.0000 </r>
       <r>  -18.7993    1.0000 </r>
       <r>  -18.7334    1.0000 </r>
       <r>  -18.7334    1.0000 </r>
       <r>  -18.6017    1.0000 </r>
       <r>  -18.6017    1.0000 </r>
       <r>  -18.5360    1.0000 </r>
       <r>  -14.4727    1.0000 </r>
       <r>  -13.2720    1.0000 </r>
       <r>  -12.8976    1.0000 </r>
       <r>  -12.8976    1.0000 </r>
       <r>  -12.6906    1.0000 </r>
       <r>  -12.6883    1.0000 </r>
       <r>  -12.6883    1.0000 </r>
       <r>  -12.4594    1.0000 </r>
       <r>  -12.4594    1.0000 </r>
       <r>  -12.4438    1.0000 </r>
       <r>  -12.4427    1.0000 </r>
       <r>  -12.4427    1.0000 </r>
       <r>  -12.2854    1.0000 </r>
       <r>  -12.2854    1.0000 </r>
       <r>   -9.7158    1.0000 </r>
       <r>   -9.7116    1.0000 </r>
       <r>   -9.6022    1.0000 </r>
       <r>   -9.6022    1.0000 </r>
       <r>   -9.3755    1.0000 </r>
       <r>   -9.3755    1.0000 </r>
       <r>   -9.2625    1.0000 </r>
       <r>   -6.1509    1.0000 </r>
       <r>   -6.1509    1.0000 </r>
       <r>   -6.1505    1.0000 </r>
       <r>   -6.0042    1.0000 </r>
       <r>   -5.5882    1.0000 </r>
       <r>   -5.5049    1.0000 </r>
       <r>   -5.5049    1.0000 </r>
       <r>   -5.3653    1.0000 </r>
       <r>   -5.3394    1.0000 </r>
       <r>   -5.3394    1.0000 </r>
       <r>   -5.3347    1.0000 </r>
       <r>   -5.3347    1.0000 </r>
       <r>   -5.2615    1.0000 </r>
       <r>   -5.2615    1.0000 </r>
       <r>   -5.2574    1.0000 </r>
       <r>   -5.2190    1.0000 </r>
       <r>   -5.1973    1.0000 </r>
       <r>   -5.1973    1.0000 </r>
       <r>   -5.1940    1.0000 </r>
       <r>   -4.4891    1.0000 </r>
       <r>   -4.4891    1.0000 </r>
       <r>   -4.4887    1.0000 </r>
       <r>   -3.5604    1.0000 </r>
       <r>   -3.5604    1.0000 </r>
       <r>   -3.5590    1.0000 </r>
       <r>   -3.0220    1.0000 </r>
       <r>   -3.0168    1.0000 </r>
       <r>   -2.3158    1.0000 </r>
       <r>   -2.3158    1.0000 </r>
       <r>   -2.3154    1.0000 </r>
       <r>   -2.2353    1.0000 </r>
       <r>   -1.9103    1.0000 </r>
       <r>   -1.8953    1.0000 </r>
       <r>   -1.4071    1.0000 </r>
       <r>   -1.4071    1.0000 </r>
       <r>   -1.3956    1.0000 </r>
       <r>   -1.1493    1.0000 </r>
       <r>   -1.1485    1.0000 </r>
       <r>   -1.0739    1.0000 </r>
       <r>   -1.0643    1.0000 </r>
       <r>   -1.0643    1.0000 </r>
       <r>   -0.4736    1.0000 </r>
       <r>    1.2344    0.7172 </r>
       <r>    1.2344    0.7172 </r>
       <r>    1.5478    0.0000 </r>
       <r>    1.5478    0.0000 </r>
       <r>    1.7532    0.0000 </r>
       <r>    1.7542    0.0000 </r>
       <r>    1.7542    0.0000 </r>
       <r>    2.2592    0.0000 </r>
       <r>    2.2615    0.0000 </r>
       <r>    2.2615    0.0000 </r>
       <r>    2.3280    0.0000 </r>
       <r>    2.3336    0.0000 </r>
       <r>    2.5410    0.0000 </r>
       <r>    2.5441    0.0000 </r>
       <r>    3.3969    0.0000 </r>
       <r>    3.4469    0.0000 </r>
       <r>    3.4484    0.0000 </r>
       <r>    3.4829    0.0000 </r>
       <r>    3.8081    0.0000 </r>
       <r>    3.8167    0.0000 </r>
      </set>
      <set comment="kpoint 3">
       <r>  -21.9474    1.0000 </r>
       <r>  -18.9273    1.0000 </r>
       <r>  -18.7953    1.0000 </r>
       <r>  -18.7953    1.0000 </r>
       <r>  -18.5320    1.0000 </r>
       <r>  -18.5320    1.0000 </r>
       <r>  -18.4006    1.0000 </r>
       <r>  -14.4684    1.0000 </r>
       <r>  -13.2699    1.0000 </r>
       <r>  -13.0071    1.0000 </r>
       <r>  -13.0071    1.0000 </r>
       <r>  -12.6979    1.0000 </r>
       <r>  -12.6887    1.0000 </r>
       <r>  -12.6887    1.0000 </r>
       <r>  -12.4839    1.0000 </r>
       <r>  -12.4839    1.0000 </r>
       <r>  -12.4470    1.0000 </r>
       <r>  -12.4425    1.0000 </r>
       <r>  -12.4425    1.0000 </r>
       <r>  -12.1433    1.0000 </r>
       <r>  -12.1433    1.0000 </r>
       <r>   -9.9411    1.0000 </r>
       <r>   -9.7134    1.0000 </r>
       <r>   -9.7134    1.0000 </r>
       <r>   -9.7060    1.0000 </r>
       <r>   -9.2604    1.0000 </r>
       <r>   -9.2604    1.0000 </r>
       <r>   -9.0349    1.0000 </r>
       <r>   -6.1445    1.0000 </r>
       <r>   -6.1445    1.0000 </r>
       <r>   -6.1430    1.0000 </r>
       <r>   -5.9989    1.0000 </r>
       <r>   -5.7503    1.0000 </r>
       <r>   -5.5829    1.0000 </r>
       <r>   -5.5829    1.0000 </r>
       <r>   -5.4346    1.0000 </r>
       <r>   -5.3834    1.0000 </r>
       <r>   -5.3834    1.0000 </r>
       <r>   -5.2522    1.0000 </r>
       <r>   -5.2522    1.0000 </r>
       <r>   -5.2374    1.0000 </r>
       <r>   -5.2374    1.0000 </r>
       <r>   -5.1982    1.0000 </r>
       <r>   -5.1982    1.0000 </r>
       <r>   -5.1871    1.0000 </r>
       <r>   -5.1421    1.0000 </r>
       <r>   -5.0875    1.0000 </r>
       <r>   -4.4866    1.0000 </r>
       <r>   -4.4866    1.0000 </r>
       <r>   -4.4851    1.0000 </r>
       <r>   -3.5608    1.0000 </r>
       <r>   -3.5608    1.0000 </r>
       <r>   -3.5554    1.0000 </r>
       <r>   -3.0327    1.0000 </r>
       <r>   -3.0119    1.0000 </r>
       <r>   -2.3141    1.0000 </r>
       <r>   -2.3141    1.0000 </r>
       <r>   -2.3128    1.0000 </r>
       <r>   -2.2734    1.0000 </r>
       <r>   -1.9180    1.0000 </r>
       <r>   -1.8639    1.0000 </r>
       <r>   -1.4432    1.0000 </r>
       <r>   -1.4432    1.0000 </r>
       <r>   -1.4001    1.0000 </r>
       <r>   -1.1659    1.0000 </r>
       <r>   -1.1595    1.0000 </r>
       <r>   -1.0825    1.0000 </r>
       <r>   -1.0473    1.0000 </r>
       <r>   -1.0473    1.0000 </r>
       <r>   -0.4754    1.0000 </r>
       <r>    1.0758    1.0000 </r>
       <r>    1.0758    1.0000 </r>
       <r>    1.7024    0.0000 </r>
       <r>    1.7025    0.0000 </r>
       <r>    1.7518    0.0000 </r>
       <r>    1.7558    0.0000 </r>
       <r>    1.7558    0.0000 </r>
       <r>    2.2516    0.0000 </r>
       <r>    2.2611    0.0000 </r>
       <r>    2.2611    0.0000 </r>
       <r>    2.3196    0.0000 </r>
       <r>    2.3419    0.0000 </r>
       <r>    2.5258    0.0000 </r>
       <r>    2.5390    0.0000 </r>
       <r>    3.3996    0.0000 </r>
       <r>    3.4391    0.0000 </r>
       <r>    3.4525    0.0000 </r>
       <r>    3.5517    0.0000 </r>
       <r>    3.7943    0.0000 </r>
       <r>    3.8008    0.0000 </r>
      </set>
      <set comment="kpoint 4">
       <r>  -21.9405    1.0000 </r>
       <r>  -19.0528    1.0000 </r>
       <r>  -18.8546    1.0000 </r>
       <r>  -18.8546    1.0000 </r>
       <r>  -18.4596    1.0000 </r>
       <r>  -18.4596    1.0000 </r>
       <r>  -18.2628    1.0000 </r>
       <r>  -14.4610    1.0000 </r>
       <r>  -13.2664    1.0000 </r>
       <r>  -13.1465    1.0000 </r>
       <r>  -13.1465    1.0000 </r>
       <r>  -12.7100    1.0000 </r>
       <r>  -12.6893    1.0000 </r>
       <r>  -12.6893    1.0000 </r>
       <r>  -12.4892    1.0000 </r>
       <r>  -12.4892    1.0000 </r>
       <r>  -12.4522    1.0000 </r>
       <r>  -12.4421    1.0000 </r>
       <r>  -12.4421    1.0000 </r>
       <r>  -11.9856    1.0000 </r>
       <r>  -11.9856    1.0000 </r>
       <r>  -10.1653    1.0000 </r>
       <r>   -9.8231    1.0000 </r>
       <r>   -9.8231    1.0000 </r>
       <r>   -9.6968    1.0000 </r>
       <r>   -9.1440    1.0000 </r>
       <r>   -9.1440    1.0000 </r>
       <r>   -8.8064    1.0000 </r>
       <r>   -6.1339    1.0000 </r>
       <r>   -6.1339    1.0000 </r>
       <r>   -6.1305    1.0000 </r>
       <r>   -5.9901    1.0000 </r>
       <r>   -5.9099    1.0000 </r>
       <r>   -5.6576    1.0000 </r>
       <r>   -5.6576    1.0000 </r>
       <r>   -5.5019    1.0000 </r>
       <r>   -5.4401    1.0000 </r>
       <r>   -5.4401    1.0000 </r>
       <r>   -5.2210    1.0000 </r>
       <r>   -5.2210    1.0000 </r>
       <r>   -5.2018    1.0000 </r>
       <r>   -5.2018    1.0000 </r>
       <r>   -5.1740    1.0000 </r>
       <r>   -5.1599    1.0000 </r>
       <r>   -5.1599    1.0000 </r>
       <r>   -5.0625    1.0000 </r>
       <r>   -4.9172    1.0000 </r>
       <r>   -4.4824    1.0000 </r>
       <r>   -4.4824    1.0000 </r>
       <r>   -4.4791    1.0000 </r>
       <r>   -3.5616    1.0000 </r>
       <r>   -3.5616    1.0000 </r>
       <r>   -3.5492    1.0000 </r>
       <r>   -3.0503    1.0000 </r>
       <r>   -3.0038    1.0000 </r>
       <r>   -2.3260    1.0000 </r>
       <r>   -2.3112    1.0000 </r>
       <r>   -2.3112    1.0000 </r>
       <r>   -2.3084    1.0000 </r>
       <r>   -1.9309    1.0000 </r>
       <r>   -1.8224    1.0000 </r>
       <r>   -1.4967    1.0000 </r>
       <r>   -1.4967    1.0000 </r>
       <r>   -1.4075    1.0000 </r>
       <r>   -1.1943    1.0000 </r>
       <r>   -1.1789    1.0000 </r>
       <r>   -1.0965    1.0000 </r>
       <r>   -1.0252    1.0000 </r>
       <r>   -1.0252    1.0000 </r>
       <r>   -0.4785    1.0000 </r>
       <r>    0.9157    1.0000 </r>
       <r>    0.9157    1.0000 </r>
       <r>    1.7496    0.0000 </r>
       <r>    1.7582    0.0000 </r>
       <r>    1.7582    0.0000 </r>
       <r>    1.8556    0.0000 </r>
       <r>    1.8556    0.0000 </r>
       <r>    2.2394    0.0000 </r>
       <r>    2.2604    0.0000 </r>
       <r>    2.2605    0.0000 </r>
       <r>    2.3063    0.0000 </r>
       <r>    2.3555    0.0000 </r>
       <r>    2.5007    0.0000 </r>
       <r>    2.5299    0.0000 </r>
       <r>    3.4123    0.0000 </r>
       <r>    3.4303    0.0000 </r>
       <r>    3.4586    0.0000 </r>
       <r>    3.4677    0.0000 </r>
       <r>    3.7721    0.0000 </r>
       <r>    3.7955    0.0000 </r>
      </set>
      <set comment="kpoint 5">
       <r>  -21.9307    1.0000 </r>
       <r>  -19.1757    1.0000 </r>
       <r>  -18.9112    1.0000 </r>
       <r>  -18.9112    1.0000 </r>
       <r>  -18.3846    1.0000 </r>
       <r>  -18.3846    1.0000 </r>
       <r>  -18.1226    1.0000 </r>
       <r>  -14.4508    1.0000 </r>
       <r>  -13.2978    1.0000 </r>
       <r>  -13.2978    1.0000 </r>
       <r>  -13.2614    1.0000 </r>
       <r>  -12.7267    1.0000 </r>
       <r>  -12.6902    1.0000 </r>
       <r>  -12.6902    1.0000 </r>
       <r>  -12.4853    1.0000 </r>
       <r>  -12.4853    1.0000 </r>
       <r>  -12.4595    1.0000 </r>
       <r>  -12.4416    1.0000 </r>
       <r>  -12.4416    1.0000 </r>
       <r>  -11.8198    1.0000 </r>
       <r>  -11.8198    1.0000 </r>
       <r>  -10.3885    1.0000 </r>
       <r>   -9.9314    1.0000 </r>
       <r>   -9.9314    1.0000 </r>
       <r>   -9.6840    1.0000 </r>
       <r>   -9.0266    1.0000 </r>
       <r>   -9.0266    1.0000 </r>
       <r>   -8.5776    1.0000 </r>
       <r>   -6.1191    1.0000 </r>
       <r>   -6.1191    1.0000 </r>
       <r>   -6.1136    1.0000 </r>
       <r>   -6.0666    1.0000 </r>
       <r>   -5.9779    1.0000 </r>
       <r>   -5.7290    1.0000 </r>
       <r>   -5.7290    1.0000 </r>
       <r>   -5.5655    1.0000 </r>
       <r>   -5.5048    1.0000 </r>
       <r>   -5.5048    1.0000 </r>
       <r>   -5.2128    1.0000 </r>
       <r>   -5.2128    1.0000 </r>
       <r>   -5.2043    1.0000 </r>
       <r>   -5.2042    1.0000 </r>
       <r>   -5.1560    1.0000 </r>
       <r>   -5.0666    1.0000 </r>
       <r>   -5.0666    1.0000 </r>
       <r>   -4.9805    1.0000 </r>
       <r>   -4.7453    1.0000 </r>
       <r>   -4.4766    1.0000 </r>
       <r>   -4.4766    1.0000 </r>
       <r>   -4.4710    1.0000 </r>
       <r>   -3.5627    1.0000 </r>
       <r>   -3.5627    1.0000 </r>
       <r>   -3.5407    1.0000 </r>
       <r>   -3.0748    1.0000 </r>
       <r>   -2.9926    1.0000 </r>
       <r>   -2.3868    1.0000 </r>
       <r>   -2.3071    1.0000 </r>
       <r>   -2.3071    1.0000 </r>
       <r>   -2.3021    1.0000 </r>
       <r>   -1.9486    1.0000 </r>
       <r>   -1.7773    1.0000 </r>
       <r>   -1.5628    1.0000 </r>
       <r>   -1.5628    1.0000 </r>
       <r>   -1.4180    1.0000 </r>
       <r>   -1.2337    1.0000 </r>
       <r>   -1.2058    1.0000 </r>
       <r>   -1.1155    1.0000 </r>
       <r>   -1.0022    1.0000 </r>
       <r>   -1.0022    1.0000 </r>
       <r>   -0.4829    1.0000 </r>
       <r>    0.7549    1.0000 </r>
       <r>    0.7549    1.0000 </r>
       <r>    1.7468    0.0000 </r>
       <r>    1.7612    0.0000 </r>
       <r>    1.7612    0.0000 </r>
       <r>    2.0071    0.0000 </r>
       <r>    2.0071    0.0000 </r>
       <r>    2.2228    0.0000 </r>
       <r>    2.2597    0.0000 </r>
       <r>    2.2597    0.0000 </r>
       <r>    2.2885    0.0000 </r>
       <r>    2.3743    0.0000 </r>
       <r>    2.4671    0.0000 </r>
       <r>    2.5177    0.0000 </r>
       <r>    3.4175    0.0000 </r>
       <r>    3.4303    0.0000 </r>
       <r>    3.4654    0.0000 </r>
       <r>    3.5026    0.0000 </r>
       <r>    3.7532    0.0000 </r>
       <r>    3.7864    0.0000 </r>
      </set>
      <set comment="kpoint 6">
       <r>  -21.9182    1.0000 </r>
       <r>  -19.2961    1.0000 </r>
       <r>  -18.9651    1.0000 </r>
       <r>  -18.9651    1.0000 </r>
       <r>  -18.3070    1.0000 </r>
       <r>  -18.3070    1.0000 </r>
       <r>  -17.9800    1.0000 </r>
       <r>  -14.4377    1.0000 </r>
       <r>  -13.4538    1.0000 </r>
       <r>  -13.4538    1.0000 </r>
       <r>  -13.2551    1.0000 </r>
       <r>  -12.7480    1.0000 </r>
       <r>  -12.6912    1.0000 </r>
       <r>  -12.6912    1.0000 </r>
       <r>  -12.4762    1.0000 </r>
       <r>  -12.4762    1.0000 </r>
       <r>  -12.4688    1.0000 </r>
       <r>  -12.4410    1.0000 </r>
       <r>  -12.4410    1.0000 </r>
       <r>  -11.6492    1.0000 </r>
       <r>  -11.6492    1.0000 </r>
       <r>  -10.6103    1.0000 </r>
       <r>  -10.0380    1.0000 </r>
       <r>  -10.0380    1.0000 </r>
       <r>   -9.6673    1.0000 </r>
       <r>   -8.9084    1.0000 </r>
       <r>   -8.9084    1.0000 </r>
       <r>   -8.3478    1.0000 </r>
       <r>   -6.2218    1.0000 </r>
       <r>   -6.1003    1.0000 </r>
       <r>   -6.1003    1.0000 </r>
       <r>   -6.0907    1.0000 </r>
       <r>   -5.9624    1.0000 </r>
       <r>   -5.7972    1.0000 </r>
       <r>   -5.7972    1.0000 </r>
       <r>   -5.6261    1.0000 </r>
       <r>   -5.5771    1.0000 </r>
       <r>   -5.5771    1.0000 </r>
       <r>   -5.2125    1.0000 </r>
       <r>   -5.2125    1.0000 </r>
       <r>   -5.2079    1.0000 </r>
       <r>   -5.2078    1.0000 </r>
       <r>   -5.1330    1.0000 </r>
       <r>   -4.9698    1.0000 </r>
       <r>   -4.9698    1.0000 </r>
       <r>   -4.8960    1.0000 </r>
       <r>   -4.5721    1.0000 </r>
       <r>   -4.4692    1.0000 </r>
       <r>   -4.4692    1.0000 </r>
       <r>   -4.4608    1.0000 </r>
       <r>   -3.5643    1.0000 </r>
       <r>   -3.5643    1.0000 </r>
       <r>   -3.5297    1.0000 </r>
       <r>   -3.1058    1.0000 </r>
       <r>   -2.9782    1.0000 </r>
       <r>   -2.4526    1.0000 </r>
       <r>   -2.3017    1.0000 </r>
       <r>   -2.3017    1.0000 </r>
       <r>   -2.2941    1.0000 </r>
       <r>   -1.9709    1.0000 </r>
       <r>   -1.7321    1.0000 </r>
       <r>   -1.6386    1.0000 </r>
       <r>   -1.6386    1.0000 </r>
       <r>   -1.4314    1.0000 </r>
       <r>   -1.2841    1.0000 </r>
       <r>   -1.2391    1.0000 </r>
       <r>   -1.1388    1.0000 </r>
       <r>   -0.9808    1.0000 </r>
       <r>   -0.9808    1.0000 </r>
       <r>   -0.4890    1.0000 </r>
       <r>    0.5934    1.0000 </r>
       <r>    0.5934    1.0000 </r>
       <r>    1.7434    0.0000 </r>
       <r>    1.7644    0.0000 </r>
       <r>    1.7644    0.0000 </r>
       <r>    2.1571    0.0000 </r>
       <r>    2.1571    0.0000 </r>
       <r>    2.2023    0.0000 </r>
       <r>    2.2592    0.0000 </r>
       <r>    2.2592    0.0000 </r>
       <r>    2.2670    0.0000 </r>
       <r>    2.3979    0.0000 </r>
       <r>    2.4262    0.0000 </r>
       <r>    2.5024    0.0000 </r>
       <r>    3.3974    0.0000 </r>
       <r>    3.4451    0.0000 </r>
       <r>    3.4670    0.0000 </r>
       <r>    3.4907    0.0000 </r>
       <r>    3.7143    0.0000 </r>
       <r>    3.7412    0.0000 </r>
      </set>
      <set comment="kpoint 7">
       <r>  -21.9030    1.0000 </r>
       <r>  -19.4140    1.0000 </r>
       <r>  -19.0164    1.0000 </r>
       <r>  -19.0164    1.0000 </r>
       <r>  -18.2269    1.0000 </r>
       <r>  -18.2269    1.0000 </r>
       <r>  -17.8351    1.0000 </r>
       <r>  -14.4218    1.0000 </r>
       <r>  -13.6117    1.0000 </r>
       <r>  -13.6117    1.0000 </r>
       <r>  -13.2474    1.0000 </r>
       <r>  -12.7736    1.0000 </r>
       <r>  -12.6925    1.0000 </r>
       <r>  -12.6925    1.0000 </r>
       <r>  -12.4800    1.0000 </r>
       <r>  -12.4631    1.0000 </r>
       <r>  -12.4631    1.0000 </r>
       <r>  -12.4403    1.0000 </r>
       <r>  -12.4403    1.0000 </r>
       <r>  -11.4755    1.0000 </r>
       <r>  -11.4755    1.0000 </r>
       <r>  -10.8311    1.0000 </r>
       <r>  -10.1428    1.0000 </r>
       <r>  -10.1428    1.0000 </r>
       <r>   -9.6470    1.0000 </r>
       <r>   -8.7892    1.0000 </r>
       <r>   -8.7892    1.0000 </r>
       <r>   -8.1182    1.0000 </r>
       <r>   -6.3734    1.0000 </r>
       <r>   -6.0776    1.0000 </r>
       <r>   -6.0776    1.0000 </r>
       <r>   -6.0644    1.0000 </r>
       <r>   -5.9435    1.0000 </r>
       <r>   -5.8620    1.0000 </r>
       <r>   -5.8620    1.0000 </r>
       <r>   -5.6841    1.0000 </r>
       <r>   -5.6572    1.0000 </r>
       <r>   -5.6572    1.0000 </r>
       <r>   -5.2203    1.0000 </r>
       <r>   -5.2203    1.0000 </r>
       <r>   -5.2122    1.0000 </r>
       <r>   -5.2122    1.0000 </r>
       <r>   -5.1051    1.0000 </r>
       <r>   -4.8700    1.0000 </r>
       <r>   -4.8700    1.0000 </r>
       <r>   -4.8087    1.0000 </r>
       <r>   -4.4600    1.0000 </r>
       <r>   -4.4600    1.0000 </r>
       <r>   -4.4509    1.0000 </r>
       <r>   -4.3962    1.0000 </r>
       <r>   -3.5664    1.0000 </r>
       <r>   -3.5663    1.0000 </r>
       <r>   -3.5163    1.0000 </r>
       <r>   -3.1428    1.0000 </r>
       <r>   -2.9607    1.0000 </r>
       <r>   -2.5217    1.0000 </r>
       <r>   -2.2950    1.0000 </r>
       <r>   -2.2950    1.0000 </r>
       <r>   -2.2842    1.0000 </r>
       <r>   -1.9977    1.0000 </r>
       <r>   -1.7220    1.0000 </r>
       <r>   -1.7220    1.0000 </r>
       <r>   -1.6888    1.0000 </r>
       <r>   -1.4478    1.0000 </r>
       <r>   -1.3451    1.0000 </r>
       <r>   -1.2805    1.0000 </r>
       <r>   -1.1656    1.0000 </r>
       <r>   -0.9620    1.0000 </r>
       <r>   -0.9620    1.0000 </r>
       <r>   -0.4967    1.0000 </r>
       <r>    0.4310    1.0000 </r>
       <r>    0.4310    1.0000 </r>
       <r>    1.7397    0.0000 </r>
       <r>    1.7673    0.0000 </r>
       <r>    1.7674    0.0000 </r>
       <r>    2.1784    0.0000 </r>
       <r>    2.2430    0.0000 </r>
       <r>    2.2589    0.0000 </r>
       <r>    2.2590    0.0000 </r>
       <r>    2.3055    0.0000 </r>
       <r>    2.3058    0.0000 </r>
       <r>    2.3790    0.0000 </r>
       <r>    2.4259    0.0000 </r>
       <r>    2.4847    0.0000 </r>
       <r>    3.3759    0.0000 </r>
       <r>    3.4584    0.0000 </r>
       <r>    3.4681    0.0000 </r>
       <r>    3.5239    0.0000 </r>
       <r>    3.6909    0.0000 </r>
       <r>    3.7499    0.0000 </r>
      </set>
      <set comment="kpoint 8">
       <r>  -21.8849    1.0000 </r>
       <r>  -19.5293    1.0000 </r>
       <r>  -19.0651    1.0000 </r>
       <r>  -19.0651    1.0000 </r>
       <r>  -18.1442    1.0000 </r>
       <r>  -18.1442    1.0000 </r>
       <r>  -17.6879    1.0000 </r>
       <r>  -14.4030    1.0000 </r>
       <r>  -13.7699    1.0000 </r>
       <r>  -13.7699    1.0000 </r>
       <r>  -13.2384    1.0000 </r>
       <r>  -12.8033    1.0000 </r>
       <r>  -12.6940    1.0000 </r>
       <r>  -12.6940    1.0000 </r>
       <r>  -12.4930    1.0000 </r>
       <r>  -12.4467    1.0000 </r>
       <r>  -12.4467    1.0000 </r>
       <r>  -12.4395    1.0000 </r>
       <r>  -12.4395    1.0000 </r>
       <r>  -11.2996    1.0000 </r>
       <r>  -11.2996    1.0000 </r>
       <r>  -11.0504    1.0000 </r>
       <r>  -10.2459    1.0000 </r>
       <r>  -10.2459    1.0000 </r>
       <r>   -9.6230    1.0000 </r>
       <r>   -8.6693    1.0000 </r>
       <r>   -8.6693    1.0000 </r>
       <r>   -7.8889    1.0000 </r>
       <r>   -6.5222    1.0000 </r>
       <r>   -6.0514    1.0000 </r>
       <r>   -6.0514    1.0000 </r>
       <r>   -6.0338    1.0000 </r>
       <r>   -5.9234    1.0000 </r>
       <r>   -5.9234    1.0000 </r>
       <r>   -5.9216    1.0000 </r>
       <r>   -5.7445    1.0000 </r>
       <r>   -5.7445    1.0000 </r>
       <r>   -5.7388    1.0000 </r>
       <r>   -5.2356    1.0000 </r>
       <r>   -5.2356    1.0000 </r>
       <r>   -5.2171    1.0000 </r>
       <r>   -5.2170    1.0000 </r>
       <r>   -5.0725    1.0000 </r>
       <r>   -4.7669    1.0000 </r>
       <r>   -4.7669    1.0000 </r>
       <r>   -4.7198    1.0000 </r>
       <r>   -4.4492    1.0000 </r>
       <r>   -4.4491    1.0000 </r>
       <r>   -4.4372    1.0000 </r>
       <r>   -4.2219    1.0000 </r>
       <r>   -3.5690    1.0000 </r>
       <r>   -3.5690    1.0000 </r>
       <r>   -3.5005    1.0000 </r>
       <r>   -3.1856    1.0000 </r>
       <r>   -2.9401    1.0000 </r>
       <r>   -2.5932    1.0000 </r>
       <r>   -2.2870    1.0000 </r>
       <r>   -2.2870    1.0000 </r>
       <r>   -2.2725    1.0000 </r>
       <r>   -2.0286    1.0000 </r>
       <r>   -1.8116    1.0000 </r>
       <r>   -1.8116    1.0000 </r>
       <r>   -1.6485    1.0000 </r>
       <r>   -1.4673    1.0000 </r>
       <r>   -1.4182    1.0000 </r>
       <r>   -1.3287    1.0000 </r>
       <r>   -1.1949    1.0000 </r>
       <r>   -0.9462    1.0000 </r>
       <r>   -0.9462    1.0000 </r>
       <r>   -0.5065    1.0000 </r>
       <r>    0.2678    1.0000 </r>
       <r>    0.2678    1.0000 </r>
       <r>    1.7359    0.0000 </r>
       <r>    1.7698    0.0000 </r>
       <r>    1.7698    0.0000 </r>
       <r>    2.1518    0.0000 </r>
       <r>    2.2174    0.0000 </r>
       <r>    2.2592    0.0000 </r>
       <r>    2.2592    0.0000 </r>
       <r>    2.3272    0.0000 </r>
       <r>    2.4508    0.0000 </r>
       <r>    2.4526    0.0000 </r>
       <r>    2.4527    0.0000 </r>
       <r>    2.4707    0.0000 </r>
       <r>    3.3534    0.0000 </r>
       <r>    3.4342    0.0000 </r>
       <r>    3.4868    0.0000 </r>
       <r>    3.5020    0.0000 </r>
       <r>    3.6838    0.0000 </r>
       <r>    3.7248    0.0000 </r>
      </set>
      <set comment="kpoint 9">
       <r>  -21.8641    1.0000 </r>
       <r>  -19.6420    1.0000 </r>
       <r>  -19.1110    1.0000 </r>
       <r>  -19.1110    1.0000 </r>
       <r>  -18.0589    1.0000 </r>
       <r>  -18.0589    1.0000 </r>
       <r>  -17.5384    1.0000 </r>
       <r>  -14.3815    1.0000 </r>
       <r>  -13.9278    1.0000 </r>
       <r>  -13.9278    1.0000 </r>
       <r>  -13.2280    1.0000 </r>
       <r>  -12.8369    1.0000 </r>
       <r>  -12.6956    1.0000 </r>
       <r>  -12.6956    1.0000 </r>
       <r>  -12.5078    1.0000 </r>
       <r>  -12.4386    1.0000 </r>
       <r>  -12.4385    1.0000 </r>
       <r>  -12.4272    1.0000 </r>
       <r>  -12.4272    1.0000 </r>
       <r>  -11.2684    1.0000 </r>
       <r>  -11.1222    1.0000 </r>
       <r>  -11.1222    1.0000 </r>
       <r>  -10.3474    1.0000 </r>
       <r>  -10.3474    1.0000 </r>
       <r>   -9.5952    1.0000 </r>
       <r>   -8.5489    1.0000 </r>
       <r>   -8.5489    1.0000 </r>
       <r>   -7.6592    1.0000 </r>
       <r>   -6.6681    1.0000 </r>
       <r>   -6.0222    1.0000 </r>
       <r>   -6.0222    1.0000 </r>
       <r>   -5.9993    1.0000 </r>
       <r>   -5.9811    1.0000 </r>
       <r>   -5.9811    1.0000 </r>
       <r>   -5.8966    1.0000 </r>
       <r>   -5.8389    1.0000 </r>
       <r>   -5.8389    1.0000 </r>
       <r>   -5.7910    1.0000 </r>
       <r>   -5.2577    1.0000 </r>
       <r>   -5.2577    1.0000 </r>
       <r>   -5.2224    1.0000 </r>
       <r>   -5.2224    1.0000 </r>
       <r>   -5.0354    1.0000 </r>
       <r>   -4.6611    1.0000 </r>
       <r>   -4.6611    1.0000 </r>
       <r>   -4.6285    1.0000 </r>
       <r>   -4.4366    1.0000 </r>
       <r>   -4.4366    1.0000 </r>
       <r>   -4.4234    1.0000 </r>
       <r>   -4.0466    1.0000 </r>
       <r>   -3.5723    1.0000 </r>
       <r>   -3.5723    1.0000 </r>
       <r>   -3.4823    1.0000 </r>
       <r>   -3.2337    1.0000 </r>
       <r>   -2.9165    1.0000 </r>
       <r>   -2.6663    1.0000 </r>
       <r>   -2.2776    1.0000 </r>
       <r>   -2.2776    1.0000 </r>
       <r>   -2.2589    1.0000 </r>
       <r>   -2.0633    1.0000 </r>
       <r>   -1.9064    1.0000 </r>
       <r>   -1.9064    1.0000 </r>
       <r>   -1.6124    1.0000 </r>
       <r>   -1.4994    1.0000 </r>
       <r>   -1.4897    1.0000 </r>
       <r>   -1.3832    1.0000 </r>
       <r>   -1.2258    1.0000 </r>
       <r>   -0.9335    1.0000 </r>
       <r>   -0.9335    1.0000 </r>
       <r>   -0.5184    1.0000 </r>
       <r>    0.1045    1.0000 </r>
       <r>    0.1045    1.0000 </r>
       <r>    1.7324    0.0000 </r>
       <r>    1.7713    0.0000 </r>
       <r>    1.7713    0.0000 </r>
       <r>    2.1230    0.0000 </r>
       <r>    2.1912    0.0000 </r>
       <r>    2.2602    0.0000 </r>
       <r>    2.2602    0.0000 </r>
       <r>    2.2723    0.0000 </r>
       <r>    2.4355    0.0000 </r>
       <r>    2.4986    0.0000 </r>
       <r>    2.5981    0.0000 </r>
       <r>    2.5986    0.0000 </r>
       <r>    3.3227    0.0000 </r>
       <r>    3.3924    0.0000 </r>
       <r>    3.4314    0.0000 </r>
       <r>    3.5269    0.0000 </r>
       <r>    3.6904    0.0000 </r>
       <r>    3.7356    0.0000 </r>
      </set>
      <set comment="kpoint 10">
       <r>  -21.8405    1.0000 </r>
       <r>  -19.7522    1.0000 </r>
       <r>  -19.1543    1.0000 </r>
       <r>  -19.1543    1.0000 </r>
       <r>  -17.9711    1.0000 </r>
       <r>  -17.9710    1.0000 </r>
       <r>  -17.3867    1.0000 </r>
       <r>  -14.3572    1.0000 </r>
       <r>  -14.0846    1.0000 </r>
       <r>  -14.0846    1.0000 </r>
       <r>  -13.2163    1.0000 </r>
       <r>  -12.8741    1.0000 </r>
       <r>  -12.6973    1.0000 </r>
       <r>  -12.6973    1.0000 </r>
       <r>  -12.5242    1.0000 </r>
       <r>  -12.4376    1.0000 </r>
       <r>  -12.4376    1.0000 </r>
       <r>  -12.4049    1.0000 </r>
       <r>  -12.4049    1.0000 </r>
       <r>  -11.4847    1.0000 </r>
       <r>  -10.9435    1.0000 </r>
       <r>  -10.9435    1.0000 </r>
       <r>  -10.4467    1.0000 </r>
       <r>  -10.4467    1.0000 </r>
       <r>   -9.5638    1.0000 </r>
       <r>   -8.4281    1.0000 </r>
       <r>   -8.4281    1.0000 </r>
       <r>   -7.4295    1.0000 </r>
       <r>   -6.8110    1.0000 </r>
       <r>   -6.0375    1.0000 </r>
       <r>   -6.0375    1.0000 </r>
       <r>   -5.9881    1.0000 </r>
       <r>   -5.9880    1.0000 </r>
       <r>   -5.9614    1.0000 </r>
       <r>   -5.9402    1.0000 </r>
       <r>   -5.9402    1.0000 </r>
       <r>   -5.8688    1.0000 </r>
       <r>   -5.8406    1.0000 </r>
       <r>   -5.2878    1.0000 </r>
       <r>   -5.2878    1.0000 </r>
       <r>   -5.2281    1.0000 </r>
       <r>   -5.2281    1.0000 </r>
       <r>   -4.9939    1.0000 </r>
       <r>   -4.5523    1.0000 </r>
       <r>   -4.5523    1.0000 </r>
       <r>   -4.5349    1.0000 </r>
       <r>   -4.4221    1.0000 </r>
       <r>   -4.4221    1.0000 </r>
       <r>   -4.4093    1.0000 </r>
       <r>   -3.8710    1.0000 </r>
       <r>   -3.5763    1.0000 </r>
       <r>   -3.5762    1.0000 </r>
       <r>   -3.4618    1.0000 </r>
       <r>   -3.2865    1.0000 </r>
       <r>   -2.8900    1.0000 </r>
       <r>   -2.7407    1.0000 </r>
       <r>   -2.2670    1.0000 </r>
       <r>   -2.2670    1.0000 </r>
       <r>   -2.2434    1.0000 </r>
       <r>   -2.1014    1.0000 </r>
       <r>   -2.0054    1.0000 </r>
       <r>   -2.0054    1.0000 </r>
       <r>   -1.5923    1.0000 </r>
       <r>   -1.5809    1.0000 </r>
       <r>   -1.5150    1.0000 </r>
       <r>   -1.4450    1.0000 </r>
       <r>   -1.2571    1.0000 </r>
       <r>   -0.9239    1.0000 </r>
       <r>   -0.9239    1.0000 </r>
       <r>   -0.5329    1.0000 </r>
       <r>   -0.0592    1.0000 </r>
       <r>   -0.0592    1.0000 </r>
       <r>    1.7293    0.0000 </r>
       <r>    1.7717    0.0000 </r>
       <r>    1.7717    0.0000 </r>
       <r>    2.0924    0.0000 </r>
       <r>    2.1646    0.0000 </r>
       <r>    2.2163    0.0000 </r>
       <r>    2.2620    0.0000 </r>
       <r>    2.2620    0.0000 </r>
       <r>    2.4093    0.0000 </r>
       <r>    2.5380    0.0000 </r>
       <r>    2.7416    0.0000 </r>
       <r>    2.7434    0.0000 </r>
       <r>    3.2849    0.0000 </r>
       <r>    3.3375    0.0000 </r>
       <r>    3.3467    0.0000 </r>
       <r>    3.5611    0.0000 </r>
       <r>    3.7105    0.0000 </r>
       <r>    3.7141    0.0000 </r>
      </set>
      <set comment="kpoint 11">
       <r>  -21.8141    1.0000 </r>
       <r>  -19.8597    1.0000 </r>
       <r>  -19.1949    1.0000 </r>
       <r>  -19.1949    1.0000 </r>
       <r>  -17.8807    1.0000 </r>
       <r>  -17.8807    1.0000 </r>
       <r>  -17.2329    1.0000 </r>
       <r>  -14.3303    1.0000 </r>
       <r>  -14.2403    1.0000 </r>
       <r>  -14.2403    1.0000 </r>
       <r>  -13.2033    1.0000 </r>
       <r>  -12.9147    1.0000 </r>
       <r>  -12.6991    1.0000 </r>
       <r>  -12.6991    1.0000 </r>
       <r>  -12.5422    1.0000 </r>
       <r>  -12.4365    1.0000 </r>
       <r>  -12.4365    1.0000 </r>
       <r>  -12.3797    1.0000 </r>
       <r>  -12.3797    1.0000 </r>
       <r>  -11.6993    1.0000 </r>
       <r>  -10.7638    1.0000 </r>
       <r>  -10.7638    1.0000 </r>
       <r>  -10.5444    1.0000 </r>
       <r>  -10.5444    1.0000 </r>
       <r>   -9.5287    1.0000 </r>
       <r>   -8.3070    1.0000 </r>
       <r>   -8.3070    1.0000 </r>
       <r>   -7.2002    1.0000 </r>
       <r>   -6.9508    1.0000 </r>
       <r>   -6.0886    1.0000 </r>
       <r>   -6.0886    1.0000 </r>
       <r>   -6.0482    1.0000 </r>
       <r>   -6.0482    1.0000 </r>
       <r>   -5.9529    1.0000 </r>
       <r>   -5.9529    1.0000 </r>
       <r>   -5.9203    1.0000 </r>
       <r>   -5.8868    1.0000 </r>
       <r>   -5.8383    1.0000 </r>
       <r>   -5.3252    1.0000 </r>
       <r>   -5.3252    1.0000 </r>
       <r>   -5.2341    1.0000 </r>
       <r>   -5.2341    1.0000 </r>
       <r>   -4.9481    1.0000 </r>
       <r>   -4.4418    1.0000 </r>
       <r>   -4.4417    1.0000 </r>
       <r>   -4.4395    1.0000 </r>
       <r>   -4.4048    1.0000 </r>
       <r>   -4.4047    1.0000 </r>
[...]
       <r>   -6.1531    1.0000 </r>
       <r>   -6.0059    1.0000 </r>
       <r>   -5.4240    1.0000 </r>
       <r>   -5.4239    1.0000 </r>
       <r>   -5.4238    1.0000 </r>
       <r>   -5.4237    1.0000 </r>
       <r>   -5.4235    1.0000 </r>
       <r>   -5.4234    1.0000 </r>
       <r>   -5.2936    1.0000 </r>
       <r>   -5.2936    1.0000 </r>
       <r>   -5.2935    1.0000 </r>
       <r>   -5.2935    1.0000 </r>
       <r>   -5.2934    1.0000 </r>
       <r>   -5.2934    1.0000 </r>
       <r>   -5.1969    1.0000 </r>
       <r>   -5.1969    1.0000 </r>
       <r>   -5.1969    1.0000 </r>
       <r>   -4.4899    1.0000 </r>
       <r>   -4.4899    1.0000 </r>
       <r>   -4.4899    1.0000 </r>
       <r>   -3.5603    1.0000 </r>
       <r>   -3.5603    1.0000 </r>
       <r>   -3.5603    1.0000 </r>
       <r>   -3.0184    1.0000 </r>
       <r>   -3.0184    1.0000 </r>
       <r>   -2.3163    1.0000 </r>
       <r>   -2.3163    1.0000 </r>
       <r>   -2.3163    1.0000 </r>
       <r>   -2.2209    1.0000 </r>
       <r>   -1.9077    1.0000 </r>
       <r>   -1.9076    1.0000 </r>
       <r>   -1.3941    1.0000 </r>
       <r>   -1.3941    1.0000 </r>
       <r>   -1.3941    1.0000 </r>
       <r>   -1.1447    1.0000 </r>
       <r>   -1.1446    1.0000 </r>
       <r>   -1.0710    1.0000 </r>
       <r>   -1.0710    1.0000 </r>
       <r>   -1.0710    1.0000 </r>
       <r>   -0.4730    1.0000 </r>
       <r>    1.3918    0.0001 </r>
       <r>    1.3918    0.0001 </r>
       <r>    1.3918    0.0001 </r>
       <r>    1.3918    0.0001 </r>
       <r>    1.7537    0.0000 </r>
       <r>    1.7537    0.0000 </r>
       <r>    1.7537    0.0000 </r>
       <r>    2.2617    0.0000 </r>
       <r>    2.2617    0.0000 </r>
       <r>    2.2617    0.0000 </r>
       <r>    2.3307    0.0000 </r>
       <r>    2.3308    0.0000 </r>
       <r>    2.5460    0.0000 </r>
       <r>    2.5461    0.0000 </r>
       <r>    3.3932    0.0000 </r>
       <r>    3.4467    0.0000 </r>
       <r>    3.4483    0.0000 </r>
       <r>    3.4511    0.0000 </r>
       <r>    3.8105    0.0000 </r>
       <r>    3.8317    0.0000 </r>
      </set>
     </set>
    </set>
   </array>
  </eigenvalues>
  <separator name="orbital magnetization" >
   <v name="MAGDIPOLOUT">      0.00000000      0.00000000      0.00000000</v>
  </separator>
  <dos>
   <i name="efermi">      1.25470800 </i>
   <total>
    <array>
     <dimension dim="1">gridpoints</dimension>
     <dimension dim="2">spin</dimension>
     <field>energy</field>
     <field>total</field>
     <field>integrated</field>
     <set>
      <set comment="spin 1">
       <r>   -23.2867     0.0000     0.0000 </r>
       <r>   -23.1889     0.0000     0.0000 </r>
       <r>   -23.0911     0.0000     0.0000 </r>
       <r>   -22.9933     0.0000     0.0000 </r>
       <r>   -22.8955     0.0000     0.0000 </r>
       <r>   -22.7977     0.0000     0.0000 </r>
       <r>   -22.6999     0.0000     0.0000 </r>
       <r>   -22.6020     0.0000     0.0000 </r>
       <r>   -22.5042     0.0000     0.0000 </r>
       <r>   -22.4064     0.0000     0.0000 </r>
       <r>   -22.3086     0.0000     0.0000 </r>
       <r>   -22.2108     0.0000     0.0000 </r>
       <r>   -22.1130     0.0000     0.0000 </r>
       <r>   -22.0152     0.0813     0.0080 </r>
       <r>   -21.9174     3.0058     0.3019 </r>
       <r>   -21.8196     3.2697     0.6217 </r>
       <r>   -21.7218     1.9806     0.8155 </r>
       <r>   -21.6240     1.5727     0.9693 </r>
       <r>   -21.5262     1.3485     1.1012 </r>
       <r>   -21.4284     1.2002     1.2186 </r>
       <r>   -21.3306     1.0929     1.3254 </r>
       <r>   -21.2328     1.0102     1.4243 </r>
       <r>   -21.1349     1.5852     1.5793 </r>
       <r>   -21.0371     3.8504     1.9559 </r>
       <r>   -20.9393     2.6535     2.2154 </r>
       <r>   -20.8415     2.4173     2.4519 </r>
       <r>   -20.7437     2.3878     2.6854 </r>
       <r>   -20.6459     2.0375     2.8847 </r>
       <r>   -20.5481     1.8757     3.0681 </r>
       <r>   -20.4503     1.7513     3.2394 </r>
       <r>   -20.3525     1.6488     3.4007 </r>
       <r>   -20.2547     1.5672     3.5540 </r>
       <r>   -20.1569     1.4961     3.7003 </r>
       <r>   -20.0591     1.4316     3.8403 </r>
       <r>   -19.9613     1.3748     3.9748 </r>
       <r>   -19.8635     1.3252     4.1044 </r>
       <r>   -19.7657     1.2821     4.2298 </r>
       <r>   -19.6678     1.2463     4.3517 </r>
       <r>   -19.5700     1.2273     4.4718 </r>
       <r>   -19.4722     2.6103     4.7271 </r>
       <r>   -19.3744     4.4777     5.1650 </r>
       <r>   -19.2766     3.0405     5.4624 </r>
       <r>   -19.1788     2.5335     5.7102 </r>
       <r>   -19.0810     2.2894     5.9341 </r>
       <r>   -18.9832     2.1673     6.1461 </r>
       <r>   -18.8854     2.0658     6.3481 </r>
       <r>   -18.7876     1.9163     6.5356 </r>
       <r>   -18.6898     2.9615     6.8252 </r>
       <r>   -18.5920     7.4171     7.5506 </r>
       <r>   -18.4942     4.6715     8.0075 </r>
       <r>   -18.3964     3.6732     8.3668 </r>
       <r>   -18.2986     3.2577     8.6854 </r>
       <r>   -18.2007     3.1270     8.9913 </r>
       <r>   -18.1029     2.8822     9.2732 </r>
       <r>   -18.0051     2.6368     9.5311 </r>
       <r>   -17.9073     2.6689     9.7921 </r>
       <r>   -17.8095     2.5353    10.0401 </r>
       <r>   -17.7117     2.3370    10.2686 </r>
       <r>   -17.6139     2.5686    10.5199 </r>
       <r>   -17.5161     2.3404    10.7488 </r>
       <r>   -17.4183     1.9486    10.9394 </r>
       <r>   -17.3205     2.0798    11.1428 </r>
       <r>   -17.2227     1.8389    11.3226 </r>
       <r>   -17.1249     1.9541    11.5138 </r>
       <r>   -17.0271     1.8706    11.6967 </r>
       <r>   -16.9293     1.8282    11.8755 </r>
       <r>   -16.8315     1.7962    12.0512 </r>
       <r>   -16.7336     1.7525    12.2226 </r>
       <r>   -16.6358     1.7018    12.3891 </r>
       <r>   -16.5380     1.7699    12.5622 </r>
       <r>   -16.4402     1.7273    12.7311 </r>
       <r>   -16.3424     1.6797    12.8954 </r>
       <r>   -16.2446     1.6333    13.0552 </r>
       <r>   -16.1468     1.6247    13.2141 </r>
       <r>   -16.0490     1.6779    13.3782 </r>
       <r>   -15.9512     1.6716    13.5417 </r>
       <r>   -15.8534     1.4464    13.6831 </r>
       <r>   -15.7556     1.7273    13.8521 </r>
       <r>   -15.6578     1.4781    13.9967 </r>
       <r>   -15.5600     1.7255    14.1654 </r>
       <r>   -15.4622     1.3670    14.2991 </r>
       <r>   -15.3644     1.7498    14.4703 </r>
       <r>   -15.2665     1.5907    14.6258 </r>
       <r>   -15.1687     1.6386    14.7861 </r>
       <r>   -15.0709     2.7837    15.0584 </r>
       <r>   -14.9731     2.9106    15.3430 </r>
       <r>   -14.8753     2.5706    15.5945 </r>
       <r>   -14.7775     3.0102    15.8889 </r>
       <r>   -14.6797     1.4110    16.0269 </r>
       <r>   -14.5819     1.1464    16.1390 </r>
       <r>   -14.4841     2.2811    16.3621 </r>
       <r>   -14.3863     5.0954    16.8605 </r>
       <r>   -14.2885     3.6435    17.2168 </r>
       <r>   -14.1907     4.8515    17.6914 </r>
       <r>   -14.0929     4.0210    18.0846 </r>
       <r>   -13.9951     5.3354    18.6065 </r>
       <r>   -13.8973     4.6320    19.0595 </r>
       <r>   -13.7994     3.9181    19.4427 </r>
       <r>   -13.7016     4.7423    19.9066 </r>
       <r>   -13.6038     6.7745    20.5692 </r>
       <r>   -13.5060     5.6817    21.1249 </r>
       <r>   -13.4082     5.6872    21.6811 </r>
       <r>   -13.3104     5.6871    22.2374 </r>
       <r>   -13.2126    10.3982    23.2544 </r>
       <r>   -13.1148     9.1533    24.1496 </r>
       <r>   -13.0170     7.9250    24.9247 </r>
       <r>   -12.9192     8.7413    25.7797 </r>
       <r>   -12.8214    13.7458    27.1241 </r>
       <r>   -12.7236    17.4990    28.8356 </r>
       <r>   -12.6258    24.8844    31.2695 </r>
       <r>   -12.5280    12.4486    32.4871 </r>
       <r>   -12.4302    29.0827    35.3315 </r>
       <r>   -12.3323    20.9526    37.3808 </r>
       <r>   -12.2345     9.2353    38.2841 </r>
       <r>   -12.1367     3.5019    38.6266 </r>
       <r>   -12.0389     3.1701    38.9367 </r>
       <r>   -11.9411     2.9376    39.2240 </r>
       <r>   -11.8433     2.8344    39.5012 </r>
       <r>   -11.7455     2.6825    39.7636 </r>
       <r>   -11.6477     2.7765    40.0351 </r>
       <r>   -11.5499     2.4642    40.2762 </r>
       <r>   -11.4521     2.7121    40.5414 </r>
       <r>   -11.3543     2.3393    40.7702 </r>
       <r>   -11.2565     2.5874    41.0233 </r>
       <r>   -11.1587     2.2925    41.2475 </r>
       <r>   -11.0609     2.5177    41.4938 </r>
       <r>   -10.9631     2.2891    41.7176 </r>
       <r>   -10.8652     2.3181    41.9444 </r>
       <r>   -10.7674     2.4092    42.1800 </r>
       <r>   -10.6696     2.1551    42.3908 </r>
       <r>   -10.5718     2.4912    42.6344 </r>
       <r>   -10.4740     1.9828    42.8284 </r>
       <r>   -10.3762     2.5177    43.0746 </r>
       <r>   -10.2784     1.9229    43.2627 </r>
       <r>   -10.1806     2.3702    43.4945 </r>
       <r>   -10.0828     2.0980    43.6997 </r>
       <r>    -9.9850     2.1858    43.9135 </r>
       <r>    -9.8872     2.2599    44.1345 </r>
       <r>    -9.7894     2.1177    44.3416 </r>
       <r>    -9.6916     4.3558    44.7677 </r>
       <r>    -9.5938     5.1614    45.2725 </r>
       <r>    -9.4960     6.2840    45.8871 </r>
       <r>    -9.3981    10.4597    46.9101 </r>
       <r>    -9.3003     6.9890    47.5937 </r>
       <r>    -9.2025     6.0189    48.1824 </r>
       <r>    -9.1047     5.8486    48.7544 </r>
       <r>    -9.0069     6.1440    49.3554 </r>
       <r>    -8.9091     3.0401    49.6527 </r>
       <r>    -8.8113     2.3617    49.8837 </r>
       <r>    -8.7135     3.7061    50.2462 </r>
       <r>    -8.6157     5.2778    50.7624 </r>
       <r>    -8.5179     6.6896    51.4167 </r>
       <r>    -8.4201     5.1606    51.9214 </r>
       <r>    -8.3223     4.6703    52.3782 </r>
       <r>    -8.2245     4.9933    52.8666 </r>
       <r>    -8.1267     4.4471    53.3015 </r>
       <r>    -8.0289     4.8296    53.7739 </r>
       <r>    -7.9310     3.9710    54.1623 </r>
       <r>    -7.8332     4.5457    54.6069 </r>
       <r>    -7.7354     3.9402    54.9923 </r>
       <r>    -7.6376     4.1785    55.4009 </r>
       <r>    -7.5398     4.1492    55.8068 </r>
       <r>    -7.4420     3.8675    56.1850 </r>
       <r>    -7.3442     4.2038    56.5962 </r>
       <r>    -7.2464     4.1302    57.0002 </r>
       <r>    -7.1486     4.5029    57.4406 </r>
       <r>    -7.0508     4.1625    57.8477 </r>
       <r>    -6.9530     4.4734    58.2852 </r>
       <r>    -6.8552     4.4810    58.7235 </r>
       <r>    -6.7574     4.0984    59.1243 </r>
       <r>    -6.6596     3.8428    59.5002 </r>
       <r>    -6.5618     3.4491    59.8375 </r>
       <r>    -6.4639     4.8093    60.3079 </r>
       <r>    -6.3661     6.6688    60.9602 </r>
       <r>    -6.2683     6.1802    61.5646 </r>
       <r>    -6.1705     9.6100    62.5045 </r>
       <r>    -6.0727    16.6687    64.1349 </r>
       <r>    -5.9749    14.8594    65.5882 </r>
       <r>    -5.8771    13.6490    66.9232 </r>
       <r>    -5.7793    12.8746    68.1824 </r>
       <r>    -5.6815    14.5803    69.6084 </r>
       <r>    -5.5837    14.0309    70.9808 </r>
       <r>    -5.4859    16.1404    72.5594 </r>
       <r>    -5.3881    22.8061    74.7900 </r>
       <r>    -5.2903    28.9537    77.6219 </r>
       <r>    -5.1925    27.1174    80.2741 </r>
       <r>    -5.0947    15.2333    81.7640 </r>
       <r>    -4.9968     9.6466    82.7075 </r>
       <r>    -4.8990     8.3624    83.5254 </r>
       <r>    -4.8012     6.8681    84.1972 </r>
       <r>    -4.7034     7.0602    84.8877 </r>
       <r>    -4.6056     6.3793    85.5117 </r>
       <r>    -4.5078     9.9117    86.4811 </r>
       <r>    -4.4100    23.8164    88.8105 </r>
       <r>    -4.3122    21.1435    90.8785 </r>
       <r>    -4.2144    24.9878    93.3224 </r>
       <r>    -4.1166    17.2371    95.0083 </r>
       <r>    -4.0188    15.7602    96.5498 </r>
       <r>    -3.9210    14.3651    97.9548 </r>
       <r>    -3.8232     7.2979    98.6686 </r>
       <r>    -3.7254     6.7056    99.3244 </r>
       <r>    -3.6276    13.4050   100.6355 </r>
       <r>    -3.5297    34.8921   104.0482 </r>
       <r>    -3.4319    19.4581   105.9513 </r>
       <r>    -3.3341    10.6098   106.9891 </r>
       <r>    -3.2363    10.0374   107.9708 </r>
       <r>    -3.1385     8.4931   108.8015 </r>
       <r>    -3.0407     9.6986   109.7501 </r>
       <r>    -2.9429    12.9126   111.0130 </r>
       <r>    -2.8451    10.0181   111.9928 </r>
       <r>    -2.7473     7.1513   112.6923 </r>
       <r>    -2.6495     6.9155   113.3687 </r>
       <r>    -2.5517     9.0695   114.2557 </r>
       <r>    -2.4539     9.5245   115.1873 </r>
       <r>    -2.3561    17.2744   116.8768 </r>
       <r>    -2.2583    29.8149   119.7929 </r>
       <r>    -2.1605    20.0436   121.7533 </r>
       <r>    -2.0626    14.4584   123.1674 </r>
       <r>    -1.9648    11.7483   124.3165 </r>
       <r>    -1.8670    13.4286   125.6299 </r>
       <r>    -1.7692    11.3869   126.7436 </r>
       <r>    -1.6714    12.6389   127.9798 </r>
       <r>    -1.5736    14.9844   129.4454 </r>
       <r>    -1.4758    16.5862   131.0676 </r>
       <r>    -1.3780    15.4097   132.5748 </r>
       <r>    -1.2802     8.7631   133.4319 </r>
       <r>    -1.1824    19.0126   135.2914 </r>
       <r>    -1.0846    20.1594   137.2632 </r>
       <r>    -0.9868    12.0464   138.4414 </r>
       <r>    -0.8890    12.5575   139.6696 </r>
       <r>    -0.7912     6.0696   140.2632 </r>
       <r>    -0.6934     4.5960   140.7128 </r>
       <r>    -0.5955     4.6240   141.1650 </r>
       <r>    -0.4977     7.2816   141.8772 </r>
       <r>    -0.3999     6.5600   142.5188 </r>
       <r>    -0.3021     1.0392   142.6205 </r>
       <r>    -0.2043     0.9048   142.7090 </r>
       <r>    -0.1065     0.6506   142.7726 </r>
       <r>    -0.0087     0.9894   142.8694 </r>
       <r>     0.0891     0.6372   142.9317 </r>
       <r>     0.1869     0.8315   143.0130 </r>
       <r>     0.2847     0.8443   143.0956 </r>
       <r>     0.3825     0.6353   143.1577 </r>
       <r>     0.4803     0.9250   143.2482 </r>
       <r>     0.5781     0.6589   143.3126 </r>
       <r>     0.6759     0.8167   143.3925 </r>
       <r>     0.7738     0.8028   143.4710 </r>
       <r>     0.8716     0.7000   143.5395 </r>
       <r>     0.9694     0.8369   143.6214 </r>
       <r>     1.0672     0.7637   143.6961 </r>
       <r>     1.1650     0.7453   143.7689 </r>
       <r>     1.2628     2.6457   144.0277 </r>
       <r>     1.3606     2.7142   144.2932 </r>
       <r>     1.4584     5.3392   144.8154 </r>
       <r>     1.5562    11.5337   145.9435 </r>
       <r>     1.6540    10.0045   146.9220 </r>
       <r>     1.7518    27.8548   149.6464 </r>
       <r>     1.8496    19.8198   151.5849 </r>
       <r>     1.9474     7.8679   152.3544 </r>
       <r>     2.0452    21.8120   154.4878 </r>
       <r>     2.1430    16.6112   156.1124 </r>
       <r>     2.2409    20.4972   158.1172 </r>
       <r>     2.3387    29.5488   161.0073 </r>
       <r>     2.4365    15.1794   162.4919 </r>
       <r>     2.5343    12.2390   163.6890 </r>
       <r>     2.6321    13.2605   164.9860 </r>
       <r>     2.7299     9.2994   165.8955 </r>
       <r>     2.8277     6.8281   166.5633 </r>
       <r>     2.9255     6.7010   167.2187 </r>
       <r>     3.0233     7.4236   167.9448 </r>
       <r>     3.1211     7.4826   168.6767 </r>
       <r>     3.2189    12.3807   169.8876 </r>
       <r>     3.3167     8.7375   170.7422 </r>
       <r>     3.4145    12.2467   171.9400 </r>
       <r>     3.5123    17.0661   173.6091 </r>
       <r>     3.6101     8.9938   174.4888 </r>
       <r>     3.7080    10.0567   175.4724 </r>
       <r>     3.8058    19.0903   177.3396 </r>
       <r>     3.9036     9.3116   178.2503 </r>
       <r>     4.0014     4.4597   178.6865 </r>
       <r>     4.0992     4.5969   179.1361 </r>
       <r>     4.1970     3.2906   179.4580 </r>
       <r>     4.2948     1.1797   179.5733 </r>
       <r>     4.3926     1.1423   179.6851 </r>
       <r>     4.4904     0.8548   179.7687 </r>
       <r>     4.5882     1.5642   179.9217 </r>
       <r>     4.6860     0.6567   179.9859 </r>
       <r>     4.7838     0.1389   179.9995 </r>
       <r>     4.8816     0.0054   180.0000 </r>
       <r>     4.9794     0.0000   180.0000 </r>
       <r>     5.0772     0.0000   180.0000 </r>
       <r>     5.1751     0.0000   180.0000 </r>
       <r>     5.2729     0.0000   180.0000 </r>
       <r>     5.3707     0.0000   180.0000 </r>
       <r>     5.4685     0.0000   180.0000 </r>
       <r>     5.5663     0.0000   180.0000 </r>
       <r>     5.6641     0.0000   180.0000 </r>
       <r>     5.7619     0.0000   180.0000 </r>
       <r>     5.8597     0.0000   180.0000 </r>
       <r>     5.9575     0.0000   180.0000 </r>
       <r>     6.0553     0.0000   180.0000 </r>
      </set>
     </set>
    </array>
   </total>
  </dos>
 </calculation>
 <structure name="finalpos" >
  <crystal>
   <varray name="basis" >
    <v>       6.38063097       0.00000000       0.00000000 </v>
    <v>       3.19031401       5.52578936       0.00000000 </v>
    <v>       0.00000000       0.00000000      20.87900352 </v>
   </varray>
   <i name="volume">    736.15238097 </i>
   <varray name="rec_basis" >
    <v>       0.15672431      -0.09048477      -0.00000000 </v>
    <v>       0.00000000       0.18096962      -0.00000000 </v>
    <v>       0.00000000       0.00000000       0.04789501 </v>
   </varray>
  </crystal>
  <varray name="positions" >
   <v>       0.16666651       0.16666649       0.38133727 </v>
   <v>       0.66666651       0.16666649       0.38133727 </v>
   <v>       0.16666651       0.66666649       0.38133727 </v>
   <v>       0.66666651       0.66666649       0.38133727 </v>
   <v>       0.33333351       0.33333349       0.30638715 </v>
   <v>       0.83333351       0.33333349       0.30638715 </v>
   <v>       0.33333351       0.83333349       0.30638715 </v>
   <v>       0.83333351       0.83333349       0.30638715 </v>
   <v>       0.33333351       0.33333349       0.45628740 </v>
   <v>       0.83333351       0.33333349       0.45628740 </v>
   <v>       0.33333351       0.83333349       0.45628740 </v>
   <v>       0.83333351       0.83333349       0.45628740 </v>
   <v>       0.00000000       0.00000000       0.69361285 </v>
   <v>       0.33333333       0.00000000       0.69361285 </v>
   <v>       0.66666667       0.00000000       0.69361285 </v>
   <v>       0.00000000       0.33333333       0.69361285 </v>
   <v>       0.33333333       0.33333333       0.69361285 </v>
   <v>       0.66666667       0.33333333       0.69361285 </v>
   <v>       0.00000000       0.66666667       0.69361285 </v>
   <v>       0.33333333       0.66666667       0.69361285 </v>
   <v>       0.66666667       0.66666667       0.69361285 </v>
   <v>       0.11111100       0.11111100       0.69361285 </v>
   <v>       0.44444434       0.11111100       0.69361285 </v>
   <v>       0.77777767       0.11111100       0.69361285 </v>
   <v>       0.11111100       0.44444433       0.69361285 </v>
   <v>       0.44444434       0.44444433       0.69361285 </v>
   <v>       0.77777767       0.44444433       0.69361285 </v>
   <v>       0.11111100       0.77777766       0.69361285 </v>
   <v>       0.44444434       0.77777766       0.69361285 </v>
   <v>       0.77777767       0.77777766       0.69361285 </v>
  </varray>
 </structure>
</modeling>
