  51  51   0   0
  0.5138078E+02  0.1230000E-08  0.1230000E-08  0.2000000E-08  0.5000000E-15
  1.000000000000000E-004
  CAR 
                                         
      5.96899517    -33.53475263  301     -3.01643237      1.00000000
    -33.535  0.0000E+00  0.0000E+00
    -33.403  0.0000E+00  0.0000E+00
    -33.271  0.0000E+00  0.0000E+00
    -33.140  0.0000E+00  0.0000E+00
    -33.008  0.0000E+00  0.0000E+00
    -32.876  0.0000E+00  0.0000E+00
    -32.745  0.0000E+00  0.0000E+00
    -32.613  0.0000E+00  0.0000E+00
    -32.481  0.0000E+00  0.0000E+00
    -32.350  0.0000E+00  0.0000E+00
    -32.218  0.0000E+00  0.0000E+00
    -32.086  0.0000E+00  0.0000E+00
    -31.955  0.8266E-08  0.1088E-08
    -31.823  0.1346E+00  0.1772E-01
    -31.691  0.1372E+02  0.1824E+01
    -31.560  0.1337E+01  0.2000E+01
    -31.428  0.2905E-05  0.2000E+01
    -31.296  0.0000E+00  0.2000E+01
    -31.165  0.0000E+00  0.2000E+01
    -31.033  0.0000E+00  0.2000E+01
    -30.901  0.0000E+00  0.2000E+01
    -30.769  0.0000E+00  0.2000E+01
    -30.638  0.0000E+00  0.2000E+01
    -30.506  0.0000E+00  0.2000E+01
    -30.374  0.0000E+00  0.2000E+01
    -30.243  0.0000E+00  0.2000E+01
    -30.111  0.0000E+00  0.2000E+01
    -29.979  0.0000E+00  0.2000E+01
    -29.848  0.0000E+00  0.2000E+01
    -29.716  0.0000E+00  0.2000E+01
    -29.584  0.0000E+00  0.2000E+01
    -29.453  0.0000E+00  0.2000E+01
    -29.321  0.0000E+00  0.2000E+01
    -29.189  0.0000E+00  0.2000E+01
    -29.058  0.0000E+00  0.2000E+01
    -28.926  0.0000E+00  0.2000E+01
    -28.794  0.0000E+00  0.2000E+01
    -28.663  0.0000E+00  0.2000E+01
    -28.531  0.0000E+00  0.2000E+01
    -28.399  0.0000E+00  0.2000E+01
    -28.268  0.0000E+00  0.2000E+01
    -28.136  0.0000E+00  0.2000E+01
    -28.004  0.0000E+00  0.2000E+01
    -27.873  0.0000E+00  0.2000E+01
    -27.741  0.0000E+00  0.2000E+01
    -27.609  0.0000E+00  0.2000E+01
    -27.478  0.0000E+00  0.2000E+01
    -27.346  0.0000E+00  0.2000E+01
    -27.214  0.0000E+00  0.2000E+01
    -27.082  0.0000E+00  0.2000E+01
    -26.951  0.0000E+00  0.2000E+01
    -26.819  0.0000E+00  0.2000E+01
    -26.687  0.0000E+00  0.2000E+01
    -26.556  0.0000E+00  0.2000E+01
    -26.424  0.0000E+00  0.2000E+01
    -26.292  0.0000E+00  0.2000E+01
    -26.161  0.0000E+00  0.2000E+01
    -26.029  0.0000E+00  0.2000E+01
    -25.897  0.0000E+00  0.2000E+01
    -25.766  0.0000E+00  0.2000E+01
    -25.634  0.0000E+00  0.2000E+01
    -25.502  0.0000E+00  0.2000E+01
    -25.371  0.0000E+00  0.2000E+01
    -25.239  0.0000E+00  0.2000E+01
    -25.107  0.0000E+00  0.2000E+01
    -24.976  0.0000E+00  0.2000E+01
    -24.844  0.0000E+00  0.2000E+01
    -24.712  0.0000E+00  0.2000E+01
    -24.581  0.0000E+00  0.2000E+01
    -24.449  0.0000E+00  0.2000E+01
    -24.317  0.0000E+00  0.2000E+01
    -24.186  0.0000E+00  0.2000E+01
    -24.054  0.0000E+00  0.2000E+01
    -23.922  0.0000E+00  0.2000E+01
    -23.790  0.0000E+00  0.2000E+01
    -23.659  0.0000E+00  0.2000E+01
    -23.527  0.0000E+00  0.2000E+01
    -23.395  0.0000E+00  0.2000E+01
    -23.264  0.0000E+00  0.2000E+01
    -23.132  0.0000E+00  0.2000E+01
    -23.000  0.0000E+00  0.2000E+01
    -22.869  0.0000E+00  0.2000E+01
    -22.737  0.0000E+00  0.2000E+01
    -22.605  0.0000E+00  0.2000E+01
    -22.474  0.7666E-08  0.2000E+01
    -22.342  0.3646E-01  0.2005E+01
    -22.210  0.4280E+01  0.2568E+01
    -22.079  0.9275E+01  0.3790E+01
    -21.947  0.4965E+01  0.4444E+01
    -21.815  0.1070E+02  0.5852E+01
    -21.684  0.5541E+01  0.6582E+01
    -21.552  0.7725E+01  0.7599E+01
    -21.420  0.1258E+02  0.9256E+01
    -21.289  0.5642E+01  0.9999E+01
    -21.157  0.3731E+01  0.1049E+02
    -21.025  0.9138E+01  0.1169E+02
    -20.894  0.1054E+02  0.1308E+02
    -20.762  0.1024E+02  0.1443E+02
    -20.630  0.8510E+01  0.1555E+02
    -20.499  0.1999E+00  0.1558E+02
    -20.367  0.1308E+02  0.1730E+02
    -20.235  0.3978E+01  0.1782E+02
    -20.103  0.1854E+02  0.2026E+02
    -19.972  0.1377E+01  0.2045E+02
    -19.840  0.3525E+01  0.2091E+02
    -19.708  0.1393E+02  0.2274E+02
    -19.577  0.8496E+01  0.2386E+02
    -19.445  0.6095E+01  0.2467E+02
    -19.313  0.6860E+01  0.2557E+02
    -19.182  0.1393E+02  0.2740E+02
    -19.050  0.7546E+01  0.2840E+02
    -18.918  0.4698E+01  0.2902E+02
    -18.787  0.5382E+01  0.2972E+02
    -18.655  0.5113E+01  0.3040E+02
    -18.523  0.1391E+02  0.3223E+02
    -18.392  0.1132E+02  0.3372E+02
    -18.260  0.8803E+01  0.3488E+02
    -18.128  0.4684E+01  0.3549E+02
    -17.997  0.1543E+02  0.3753E+02
    -17.865  0.4811E+01  0.3816E+02
    -17.733  0.3756E+01  0.3865E+02
    -17.602  0.5819E+01  0.3942E+02
    -17.470  0.1570E+02  0.4149E+02
    -17.338  0.4016E+01  0.4202E+02
    -17.207  0.2153E+02  0.4485E+02
    -17.075  0.6909E+01  0.4576E+02
    -16.943  0.3505E+01  0.4622E+02
    -16.811  0.8820E+01  0.4738E+02
    -16.680  0.4037E+01  0.4792E+02
    -16.548  0.8918E+01  0.4909E+02
    -16.416  0.8820E+01  0.5025E+02
    -16.285  0.3163E+01  0.5067E+02
    -16.153  0.9183E+01  0.5188E+02
    -16.021  0.5860E+01  0.5265E+02
    -15.890  0.1304E+02  0.5437E+02
    -15.758  0.1210E+02  0.5596E+02
    -15.626  0.2121E+01  0.5624E+02
    -15.495  0.4245E+01  0.5680E+02
    -15.363  0.2740E+01  0.5716E+02
    -15.231  0.1010E+02  0.5849E+02
    -15.100  0.2199E+02  0.6138E+02
    -14.968  0.4863E+01  0.6202E+02
    -14.836  0.1139E+02  0.6352E+02
    -14.705  0.1047E+02  0.6490E+02
    -14.573  0.6440E+01  0.6575E+02
    -14.441  0.1551E+02  0.6779E+02
    -14.310  0.4950E+01  0.6844E+02
    -14.178  0.9572E+00  0.6857E+02
    -14.046  0.4141E+01  0.6912E+02
    -13.915  0.9891E+01  0.7042E+02
    -13.783  0.1634E+02  0.7257E+02
    -13.651  0.1841E+02  0.7499E+02
    -13.520  0.1674E+01  0.7521E+02
    -13.388  0.2592E+01  0.7555E+02
    -13.256  0.4630E+00  0.7562E+02
    -13.124  0.1111E+02  0.7708E+02
    -12.993  0.1390E+02  0.7891E+02
    -12.861  0.2040E+02  0.8159E+02
    -12.729  0.1396E+01  0.8178E+02
    -12.598  0.4453E+01  0.8236E+02
    -12.466  0.1784E+02  0.8471E+02
    -12.334  0.1093E+02  0.8615E+02
    -12.203  0.3644E+01  0.8663E+02
    -12.071  0.3101E+01  0.8704E+02
    -11.939  0.1225E+02  0.8865E+02
    -11.808  0.3610E+01  0.8913E+02
    -11.676  0.1541E+02  0.9116E+02
    -11.544  0.1807E+02  0.9354E+02
    -11.413  0.1364E+02  0.9533E+02
    -11.281  0.8441E+01  0.9644E+02
    -11.149  0.5595E+01  0.9718E+02
    -11.018  0.7922E+01  0.9822E+02
    -10.886  0.1263E+02  0.9989E+02
    -10.754  0.1730E+02  0.1022E+03
    -10.623  0.1820E+01  0.1024E+03
    -10.491  0.2053E+02  0.1051E+03
    -10.359  0.4010E+01  0.1056E+03
    -10.228  0.2410E+02  0.1088E+03
    -10.096  0.2576E+02  0.1122E+03
     -9.964  0.1858E+02  0.1147E+03
     -9.833  0.1428E+02  0.1165E+03
     -9.701  0.1769E+02  0.1189E+03
     -9.569  0.2740E+02  0.1225E+03
     -9.437  0.2104E+02  0.1252E+03
     -9.306  0.2733E+02  0.1288E+03
     -9.174  0.2350E+02  0.1319E+03
     -9.042  0.2838E+02  0.1357E+03
     -8.911  0.2042E+02  0.1384E+03
     -8.779  0.1774E+02  0.1407E+03
     -8.647  0.2289E+02  0.1437E+03
     -8.516  0.1765E+02  0.1460E+03
     -8.384  0.1658E+02  0.1482E+03
     -8.252  0.1529E+02  0.1502E+03
     -8.121  0.1579E+02  0.1523E+03
     -7.989  0.2872E+02  0.1561E+03
     -7.857  0.1620E+02  0.1582E+03
     -7.726  0.1672E+02  0.1604E+03
     -7.594  0.7793E+01  0.1615E+03
     -7.462  0.2501E+01  0.1618E+03
     -7.331  0.1721E+02  0.1640E+03
     -7.199  0.3230E+02  0.1683E+03
     -7.067  0.1611E+02  0.1704E+03
     -6.936  0.4289E+01  0.1710E+03
     -6.804  0.1934E+02  0.1735E+03
     -6.672  0.1241E+02  0.1752E+03
     -6.541  0.1616E+02  0.1773E+03
     -6.409  0.7236E+01  0.1782E+03
     -6.277  0.1250E+02  0.1799E+03
     -6.145  0.1519E+02  0.1819E+03
     -6.014  0.1389E+02  0.1837E+03
     -5.882  0.1980E+02  0.1863E+03
     -5.750  0.8048E+01  0.1874E+03
     -5.619  0.1374E+02  0.1892E+03
     -5.487  0.3367E+01  0.1896E+03
     -5.355  0.7921E+01  0.1907E+03
     -5.224  0.8679E+01  0.1918E+03
     -5.092  0.1154E+02  0.1933E+03
     -4.960  0.1787E+02  0.1957E+03
     -4.829  0.1583E+02  0.1978E+03
     -4.697  0.3206E+01  0.1982E+03
     -4.565  0.1057E+00  0.1982E+03
     -4.434  0.2518E-04  0.1982E+03
     -4.302  0.2649E+01  0.1986E+03
     -4.170  0.1732E+02  0.2009E+03
     -4.039  0.5346E+01  0.2016E+03
     -3.907  0.1269E-02  0.2016E+03
     -3.775  0.3787E+00  0.2016E+03
     -3.644  0.2976E+01  0.2020E+03
     -3.512  0.2246E+00  0.2020E+03
     -3.380  0.4196E+01  0.2026E+03
     -3.249  0.1233E+02  0.2042E+03
     -3.117  0.1068E+02  0.2056E+03
     -2.985  0.2998E+01  0.2060E+03
     -2.854  0.2381E+01  0.2063E+03
     -2.722  0.9287E+01  0.2075E+03
     -2.590  0.1047E+00  0.2076E+03
     -2.458  0.7425E-01  0.2076E+03
     -2.327  0.3161E+01  0.2080E+03
     -2.195  0.2847E+01  0.2084E+03
     -2.063  0.6682E+00  0.2084E+03
     -1.932  0.8103E-05  0.2084E+03
     -1.800  0.2221E-07  0.2084E+03
     -1.668  0.1567E+00  0.2085E+03
     -1.537  0.9442E+01  0.2097E+03
     -1.405  0.1244E+02  0.2113E+03
     -1.273  0.3272E+01  0.2118E+03
     -1.142  0.1358E-03  0.2118E+03
     -1.010  0.1052E+01  0.2119E+03
     -0.878  0.1041E+02  0.2133E+03
     -0.747  0.2336E+02  0.2164E+03
     -0.615  0.1853E+02  0.2188E+03
     -0.483  0.5430E+01  0.2195E+03
     -0.352  0.3131E+00  0.2196E+03
     -0.220  0.4399E+01  0.2201E+03
     -0.088  0.1115E+02  0.2216E+03
      0.043  0.1059E+02  0.2230E+03
      0.175  0.9592E+00  0.2231E+03
      0.307  0.1576E+02  0.2252E+03
      0.438  0.7810E+01  0.2262E+03
      0.570  0.3322E+01  0.2267E+03
      0.702  0.1060E+02  0.2281E+03
      0.834  0.1732E+02  0.2303E+03
      0.965  0.6143E+01  0.2312E+03
      1.097  0.1079E+02  0.2326E+03
      1.229  0.1526E+02  0.2346E+03
      1.360  0.8073E+01  0.2356E+03
      1.492  0.1494E+02  0.2376E+03
      1.624  0.2288E+02  0.2406E+03
      1.755  0.1536E+02  0.2426E+03
      1.887  0.2782E+02  0.2463E+03
      2.019  0.8503E+01  0.2474E+03
      2.150  0.1590E+02  0.2495E+03
      2.282  0.2589E+02  0.2529E+03
      2.414  0.2900E+02  0.2568E+03
      2.545  0.7847E+01  0.2578E+03
      2.677  0.6165E+01  0.2586E+03
      2.809  0.8900E+01  0.2598E+03
      2.940  0.5373E+01  0.2605E+03
      3.072  0.9080E+01  0.2617E+03
      3.204  0.2749E+01  0.2620E+03
      3.335  0.4761E+01  0.2627E+03
      3.467  0.3691E-01  0.2627E+03
      3.599  0.2984E+01  0.2631E+03
      3.730  0.3764E+01  0.2636E+03
      3.862  0.1896E-02  0.2636E+03
      3.994  0.6410E-06  0.2636E+03
      4.125  0.2964E+00  0.2636E+03
      4.257  0.3049E+01  0.2640E+03
      4.389  0.3001E-01  0.2640E+03
      4.521  0.1852E-08  0.2640E+03
      4.652  0.0000E+00  0.2640E+03
      4.784  0.0000E+00  0.2640E+03
      4.916  0.0000E+00  0.2640E+03
      5.047  0.0000E+00  0.2640E+03
      5.179  0.0000E+00  0.2640E+03
      5.311  0.0000E+00  0.2640E+03
      5.442  0.0000E+00  0.2640E+03
      5.574  0.0000E+00  0.2640E+03
      5.706  0.0000E+00  0.2640E+03
      5.837  0.0000E+00  0.2640E+03
      5.969  0.0000E+00  0.2640E+03
