 vasp.5.4.4.18Apr17-6-g9f103f2a35 (build Aug 13 2022 23:40:43) complex          
  
 executed on             LinuxIFC date 2024.11.10  04:07:47
 running on   48 total cores
 distrk:  each k-point on   48 cores,    1 groups
 distr:  one band on NCORES_PER_BAND=   8 cores,    6 groups


--------------------------------------------------------------------------------------------------------


 INCAR:
 POTCAR:    PAW_PBE C 08Apr2002                   
 POTCAR:    PAW_PBE O 08Apr2002                   
 POTCAR:    PAW_PBE C 08Apr2002                   
   VRHFIN =C: s2p2                                                              
   LEXCH  = PE                                                                  
   EATOM  =   147.1560 eV,   10.8157 Ry                                         
                                                                                
   TITEL  = PAW_PBE C 08Apr2002                                                 
   LULTRA =        F    use ultrasoft PP ?                                      
   IUNSCR =        1    unscreen: 0-lin 1-nonlin 2-no                           
   RPACOR =    1.200    partial core radius                                     
   POMASS =   12.011; ZVAL   =    4.000    mass and valenz                      
   RCORE  =    1.500    outmost cutoff radius                                   
   RWIGS  =    1.630; RWIGS  =    0.863    wigner-seitz radius (au A)           
   ENMAX  =  400.000; ENMIN  =  300.000 eV                                      
   ICORE  =        2    local potential                                         
   LCOR   =        T    correct aug charges                                     
   LPAW   =        T    paw PP                                                  
   EAUG   =  644.873                                                            
   DEXC   =    0.000                                                            
   RMAX   =    1.529    core radius for proj-oper                               
   RAUG   =    1.300    factor for augmentation sphere                          
   RDEP   =    1.501    radius for radial grids                                 
   RDEPT  =    1.300    core radius for aug-charge                              
                                                                                
   Atomic configuration                                                         
    4 entries                                                                   
     n  l   j            E        occ.                                          
     1  0  0.50      -273.3789   2.0000                                         
     2  0  0.50       -13.7508   2.0000                                         
     2  1  0.50        -5.2854   2.0000                                         
     3  2  1.50        -5.4423   0.0000                                         
   Description                                                                  
     l       E           TYP  RCUT    TYP  RCUT                                 
     0    -13.7508458     23  1.200                                             
     0     -8.2022199     23  1.200                                             
     1     -5.2854383     23  1.500                                             
     1     34.0145650     23  1.500                                             
     2     -5.4423304      7  1.500                                             
  local pseudopotential read in
  partial core-charges read in
  partial kinetic energy density read in
  atomic valenz-charges read in
  non local Contribution for L=           0  read in
    real space projection operators read in
  non local Contribution for L=           0  read in
    real space projection operators read in
  non local Contribution for L=           1  read in
    real space projection operators read in
  non local Contribution for L=           1  read in
    real space projection operators read in
    PAW grid and wavefunctions read in
 
   number of l-projection  operators is LMAX  =           4
   number of lm-projection operators is LMMAX =           8
 
 POTCAR:    PAW_PBE O 08Apr2002                   
   VRHFIN =O: s2p4                                                              
   LEXCH  = PE                                                                  
   EATOM  =   432.3788 eV,   31.7789 Ry                                         
                                                                                
   TITEL  = PAW_PBE O 08Apr2002                                                 
   LULTRA =        F    use ultrasoft PP ?                                      
   IUNSCR =        1    unscreen: 0-lin 1-nonlin 2-no                           
   RPACOR =    1.200    partial core radius                                     
   POMASS =   16.000; ZVAL   =    6.000    mass and valenz                      
   RCORE  =    1.520    outmost cutoff radius                                   
   RWIGS  =    1.550; RWIGS  =    0.820    wigner-seitz radius (au A)           
   ENMAX  =  400.000; ENMIN  =  300.000 eV                                      
   ICORE  =        2    local potential                                         
   LCOR   =        T    correct aug charges                                     
   LPAW   =        T    paw PP                                                  
   EAUG   =  605.392                                                            
   DEXC   =    0.000                                                            
   RMAX   =    1.553    core radius for proj-oper                               
   RAUG   =    1.300    factor for augmentation sphere                          
   RDEP   =    1.550    radius for radial grids                                 
   RDEPT  =    1.329    core radius for aug-charge                              
                                                                                
   Atomic configuration                                                         
    4 entries                                                                   
     n  l   j            E        occ.                                          
     1  0  0.50      -514.6923   2.0000                                         
     2  0  0.50       -23.9615   2.0000                                         
     2  1  0.50        -9.0305   4.0000                                         
     3  2  1.50        -9.5241   0.0000                                         
   Description                                                                  
     l       E           TYP  RCUT    TYP  RCUT                                 
     0    -23.9615318     23  1.200                                             
     0     -9.5240782     23  1.200                                             
     1     -9.0304911     23  1.520                                             
     1      8.1634956     23  1.520                                             
     2     -9.5240782      7  1.500                                             
  local pseudopotential read in
  partial core-charges read in
  partial kinetic energy density read in
  kinetic energy density of atom read in
  atomic valenz-charges read in
  non local Contribution for L=           0  read in
    real space projection operators read in
  non local Contribution for L=           0  read in
    real space projection operators read in
  non local Contribution for L=           1  read in
    real space projection operators read in
  non local Contribution for L=           1  read in
    real space projection operators read in
    PAW grid and wavefunctions read in
 
   number of l-projection  operators is LMAX  =           4
   number of lm-projection operators is LMMAX =           8
 

 ----------------------------------------------------------------------------- 
|                                                                             |
|  ADVICE TO THIS USER RUNNING 'VASP/VAMP'   (HEAR YOUR MASTER'S VOICE ...):  |
|                                                                             |
|      You have a (more or less) 'large supercell' and for larger cells       |
|      it might be more efficient to use real space projection opertators     |
|      So try LREAL= Auto  in the INCAR   file.                               |
|      Mind:          For very  accurate calculation you might also keep the  |
|      reciprocal projection scheme          (i.e. LREAL=.FALSE.)             |
|                                                                             |
 ----------------------------------------------------------------------------- 

  PAW_PBE C 08Apr2002                   :
 energy of atom  1       EATOM= -147.1560
 kinetic energy error for atom=    0.0288 (will be added to EATOM!!)
  PAW_PBE O 08Apr2002                   :
 energy of atom  2       EATOM= -432.3788
 kinetic energy error for atom=    0.1156 (will be added to EATOM!!)
 
 
 POSCAR: generated by phonopy                    
  positions in direct lattice
  No initial velocities read in
 exchange correlation table for  LEXCH =        8
   RHO(1)=    0.500       N(1)  =     2000
   RHO(2)=  100.500       N(2)  =     4000

 VTST: version 3.2, (02/03/18)

 CHAIN: initializing optimizer
 
 OPT: Using VASP Dynamics algorithm
 CHAIN: Read ICHAIN            0
 
 POSCAR: generated by phonopy                    
  positions in direct lattice
  No initial velocities read in
 


--------------------------------------------------------------------------------------------------------


 ion  position               nearest neighbor table
   1  0.000  0.000  0.418-  26 1.42  30 1.42  46 1.42
   2  0.200  0.000  0.418-  26 1.42  47 1.42  27 1.43
   3  0.400  0.000  0.418-  28 1.42  48 1.42  27 1.42
   4  0.600  0.000  0.418-  29 1.42  28 1.42  49 1.42
   5  0.800  0.000  0.418-  30 1.42  29 1.42  50 1.42
   6  0.000  0.200  0.418-  31 1.42  35 1.42  26 1.42
   7  0.200  0.200  0.418-  27 1.41  32 1.42  31 1.42
   8  0.400  0.200  0.418-  33 1.42  32 1.42  28 1.42
   9  0.600  0.200  0.418-  34 1.42  33 1.42  29 1.42
  10  0.800  0.200  0.418-  35 1.42  34 1.42  30 1.42
  11  0.000  0.400  0.418-  36 1.42  40 1.42  31 1.42
  12  0.200  0.400  0.418-  37 1.42  36 1.42  32 1.42
  13  0.400  0.400  0.418-  51 1.00  38 1.42  37 1.42  33 1.42
  14  0.600  0.400  0.418-  39 1.42  38 1.42  34 1.42
  15  0.800  0.400  0.418-  40 1.42  39 1.42  35 1.42
  16  0.000  0.600  0.418-  41 1.42  45 1.42  36 1.42
  17  0.200  0.600  0.418-  42 1.42  41 1.42  37 1.42
  18  0.400  0.600  0.418-  43 1.42  42 1.42  38 1.42
  19  0.600  0.600  0.418-  44 1.42  43 1.42  39 1.42
  20  0.800  0.600  0.418-  45 1.42  44 1.42  40 1.42
  21  0.000  0.800  0.418-  46 1.42  50 1.42  41 1.42
  22  0.200  0.800  0.418-  47 1.42  46 1.42  42 1.42
  23  0.400  0.800  0.418-  48 1.42  47 1.42  43 1.42
  24  0.600  0.800  0.418-  49 1.42  48 1.42  44 1.42
  25  0.800  0.800  0.418-  50 1.42  49 1.42  45 1.42
  26  0.067  0.067  0.418-   1 1.42   2 1.42   6 1.42
  27  0.267  0.067  0.418-   7 1.41   3 1.42   2 1.43
  28  0.467  0.067  0.418-   3 1.42   4 1.42   8 1.42
  29  0.667  0.067  0.418-   4 1.42   5 1.42   9 1.42
  30  0.867  0.067  0.418-   5 1.42   1 1.42  10 1.42
  31  0.067  0.267  0.418-   6 1.42   7 1.42  11 1.42
  32  0.267  0.267  0.418-   7 1.42   8 1.42  12 1.42
  33  0.467  0.267  0.418-   8 1.42   9 1.42  13 1.42  51 1.74
  34  0.667  0.267  0.418-   9 1.42  10 1.42  14 1.42
  35  0.867  0.267  0.418-  10 1.42   6 1.42  15 1.42
  36  0.067  0.467  0.418-  11 1.42  12 1.42  16 1.42
  37  0.267  0.467  0.418-  12 1.42  13 1.42  17 1.42  51 1.74
  38  0.467  0.467  0.418-  13 1.42  14 1.42  18 1.42  51 1.74
  39  0.667  0.467  0.418-  14 1.42  15 1.42  19 1.42
  40  0.867  0.467  0.418-  15 1.42  11 1.42  20 1.42
  41  0.067  0.667  0.418-  16 1.42  17 1.42  21 1.42
  42  0.267  0.667  0.418-  17 1.42  18 1.42  22 1.42
  43  0.467  0.667  0.418-  18 1.42  19 1.42  23 1.42
  44  0.667  0.667  0.418-  19 1.42  20 1.42  24 1.42
  45  0.867  0.667  0.418-  20 1.42  16 1.42  25 1.42
  46  0.067  0.867  0.418-  21 1.42  22 1.42   1 1.42
  47  0.267  0.867  0.418-  22 1.42  23 1.42   2 1.42
  48  0.467  0.867  0.418-  23 1.42  24 1.42   3 1.42
  49  0.667  0.867  0.418-  24 1.42  25 1.42   4 1.42
  50  0.867  0.867  0.418-  25 1.42  21 1.42   5 1.42
  51  0.400  0.400  0.468-  13 1.00  38 1.74  37 1.74  33 1.74
 
  LATTYP: Found a hexagonal cell.
 ALAT       =    12.2999994816
 C/A-ratio  =     1.6260163287
  
  Lattice vectors:
  
 A1 = (   6.1499993860, -10.6521122225,   0.0000000000)
 A2 = ( -12.3000001905,   0.0000000000,   0.0000000000)
 A3 = (   0.0000000000,   0.0000000000, -20.0000000000)


Analysis of symmetry for initial positions (statically):
=====================================================================
 Subroutine PRICEL returns:
 Original cell was already a primitive cell.
 

 Routine SETGRP: Setting up the symmetry group for a 
 hexagonal supercell.


 Subroutine GETGRP returns: Found  1 space group operations
 (whereof  1 operations were pure point group operations)
 out of a pool of 24 trial point group operations.


The static configuration has the point symmetry C_1 .


Analysis of symmetry for dynamics (positions and initial velocities):
=====================================================================
 Subroutine PRICEL returns:
 Original cell was already a primitive cell.
 

 Routine SETGRP: Setting up the symmetry group for a 
 hexagonal supercell.


 Subroutine GETGRP returns: Found  1 space group operations
 (whereof  1 operations were pure point group operations)
 out of a pool of 24 trial point group operations.


The dynamic configuration has the point symmetry C_1 .


 Subroutine INISYM returns: Found  1 space group operations
 (whereof  1 operations are pure point group operations),
 and found     1 'primitive' translations

 
 
 KPOINTS: K-POINTS                                

Automatic generation of k-mesh.
Space group operators:
 irot       det(A)        alpha          n_x          n_y          n_z        tau_x        tau_y        tau_z
    1     1.000000     0.000000     1.000000     0.000000     0.000000     0.000000     0.000000     0.000000
 
 Subroutine IBZKPT returns following result:
 ===========================================
 
 Found      5 irreducible k-points:
 
 Following reciprocal coordinates:
            Coordinates               Weight
  0.000000  0.000000  0.000000      1.000000
  0.333333  0.000000  0.000000      2.000000
  0.000000  0.333333  0.000000      2.000000
  0.333333  0.333333  0.000000      2.000000
 -0.333333  0.333333  0.000000      2.000000
 
 Following cartesian coordinates:
            Coordinates               Weight
  0.000000  0.000000  0.000000      1.000000
  0.027100 -0.015646  0.000000      2.000000
  0.000000  0.031293  0.000000      2.000000
  0.027100  0.015646  0.000000      2.000000
 -0.027100  0.046939  0.000000      2.000000
 


--------------------------------------------------------------------------------------------------------




 Dimension of arrays:
   k-points           NKPTS =      5   k-points in BZ     NKDIM =      5   number of bands    NBANDS=    132
   number of dos      NEDOS =    301   number of ions     NIONS =     51
   non local maximal  LDIM  =      4   non local SUM 2l+1 LMDIM =      8
   total plane-waves  NPLWV = 896000
   max r-space proj   IRMAX =      1   max aug-charges    IRDMAX=  35685
   dimension x,y,z NGX =    80 NGY =   80 NGZ =  140
   dimension x,y,z NGXF=   160 NGYF=  160 NGZF=  280
   support grid    NGXF=   320 NGYF=  320 NGZF=  560
   ions per type =              50   1
   NGX,Y,Z   is equivalent  to a cutoff of  10.81, 10.81, 11.64 a.u.
   NGXF,Y,Z  is equivalent  to a cutoff of  21.63, 21.63, 23.27 a.u.

 SYSTEM =                                          
 POSCAR =  generated by phonopy                    

 Startparameter for this run:
   NWRITE =      2    write-flag & timer
   PREC   = accura    normal or accurate (medium, high low for compatibility)
   ISTART =      1    job   : 0-new  1-cont  2-samecut
   ICHARG =      1    charge: 1-file 2-atom 10-const
   ISPIN  =      1    spin polarized calculation?
   LNONCOLLINEAR =      F non collinear calculations
   LSORBIT =      F    spin-orbit coupling
   INIWAV =      1    electr: 0-lowe 1-rand  2-diag
   LASPH  =      F    aspherical Exc in radial PAW
   METAGGA=      F    non-selfconsistent MetaGGA calc.

 Electronic Relaxation 1
   ENCUT  =  400.0 eV  29.40 Ry    5.42 a.u.  20.06 20.06 32.61*2*pi/ulx,y,z
   ENINI  =  400.0     initial cutoff
   ENAUG  =  644.9 eV  augmentation charge cutoff
   NELM   =    300;   NELMIN=  2; NELMDL=  0     # of ELM steps 
   EDIFF  = 0.1E-04   stopping-criterion for ELM
   LREAL  =      F    real-space projection
   NLSPLINE    = F    spline interpolate recip. space projectors
   LCOMPAT=      F    compatible to vasp.4.4
   GGA_COMPAT  = T    GGA compatible to vasp.4.4-vasp.4.6
   LMAXPAW     = -100 max onsite density
   LMAXMIX     =    2 max onsite mixed and CHGCAR
   VOSKOWN=      0    Vosko Wilk Nusair interpolation
   ROPT   =    0.00000   0.00000
 Ionic relaxation
   EDIFFG = -.1E-02   stopping-criterion for IOM
   NSW    =      1    number of steps for IOM
   NBLOCK =      1;   KBLOCK =      1    inner block; outer block 
   IBRION =     -1    ionic relax: 0-MD 1-quasi-New 2-CG
   NFREE  =      0    steps in history (QN), initial steepest desc. (CG)
   ISIF   =      2    stress and relaxation
   IWAVPR =     10    prediction:  0-non 1-charg 2-wave 3-comb
   ISYM   =      2    0-nonsym 1-usesym 2-fastsym
   LCORR  =      T    Harris-Foulkes like correction to forces

   POTIM  = 0.5000    time-step for ionic-motion
   TEIN   =    0.0    initial temperature
   TEBEG  =    0.0;   TEEND  =   0.0 temperature during run
   SMASS  =  -3.00    Nose mass-parameter (am)
   estimated Nose-frequenzy (Omega)   =  0.10E-29 period in steps =****** mass=  -0.346E-26a.u.
   SCALEE = 1.0000    scale energy and forces
   NPACO  =    256;   APACO  = 16.0  distance and # of slots for P.C.
   PSTRESS=    0.0 pullay stress

  Mass of Ions in am
   POMASS =  12.01 16.00
  Ionic Valenz
   ZVAL   =   4.00  6.00
  Atomic Wigner-Seitz radii
   RWIGS  =  -1.00 -1.00
  virtual crystal weights 
   VCA    =   1.00  1.00
   NELECT =     206.0000    total number of electrons
   NUPDOWN=      -1.0000    fix difference up-down

 DOS related values:
   EMIN   =  10.00;   EMAX   =-10.00  energy-range for DOS
   EFERMI =   0.00
   ISMEAR =     0;   SIGMA  =   0.05  broadening in eV -4-tet -1-fermi 0-gaus

 Electronic relaxation 2 (details)
   IALGO  =     68    algorithm
   LDIAG  =      T    sub-space diagonalisation (order eigenvalues)
   LSUBROT=      F    optimize rotation matrix (better conditioning)
   TURBO    =      0    0=normal 1=particle mesh
   IRESTART =      0    0=no restart 2=restart with 2 vectors
   NREBOOT  =      0    no. of reboots
   NMIN     =      0    reboot dimension
   EREF     =   0.00    reference energy to select bands
   IMIX   =      4    mixing-type and parameters
     AMIX     =   0.40;   BMIX     =  1.00
     AMIX_MAG =   1.60;   BMIX_MAG =  1.00
     AMIN     =   0.10
     WC   =   100.;   INIMIX=   1;  MIXPRE=   1;  MAXMIX= -45

 Intra band minimization:
   WEIMIN = 0.0000     energy-eigenvalue tresh-hold
   EBREAK =  0.19E-07  absolut break condition
   DEPER  =   0.30     relativ break condition  

   TIME   =   0.40     timestep for ELM

  volume/ion in A,a.u.               =      51.38       346.73
  Fermi-wavevector in a.u.,A,eV,Ry     =   0.701305  1.325274  6.691736  0.491829
  Thomas-Fermi vector in A             =   1.785695
 
 Write flags
   LWAVE        =      F    write WAVECAR
   LDOWNSAMPLE  =      F    k-point downsampling of WAVECAR
   LCHARG       =      F    write CHGCAR
   LVTOT        =      F    write LOCPOT, total local potential
   LVHAR        =      F    write LOCPOT, Hartree potential only
   LELF         =      F    write electronic localiz. function (ELF)
   LORBIT       =      0    0 simple, 1 ext, 2 COOP (PROOUT), +10 PAW based schemes


 Dipole corrections
   LMONO  =      F    monopole corrections only (constant potential shift)
   LDIPOL =      F    correct potential (dipole corrections)
   IDIPOL =      0    1-x, 2-y, 3-z, 4-all directions 
   EPSILON=  1.0000000 bulk dielectric constant

 Exchange correlation treatment:
   GGA     =    --    GGA type
   LEXCH   =     8    internal setting for exchange type
   VOSKOWN=      0    Vosko Wilk Nusair interpolation
   LHFCALC =     F    Hartree Fock is set to
   LHFONE  =     F    Hartree Fock one center treatment
   AEXX    =    0.0000 exact exchange contribution

 Linear response parameters
   LEPSILON=     F    determine dielectric tensor
   LRPA    =     F    only Hartree local field effects (RPA)
   LNABLA  =     F    use nabla operator in PAW spheres
   LVEL    =     F    velocity operator in full k-point grid
   LINTERFAST=   F  fast interpolation
   KINTER  =     0    interpolate to denser k-point grid
   CSHIFT  =0.1000    complex shift for real part using Kramers Kronig
   OMEGAMAX=  -1.0    maximum frequency
   DEG_THRESHOLD= 0.2000000E-02 threshold for treating states as degnerate
   RTIME   =   -0.100 relaxation time in fs
  (WPLASMAI=    0.000 imaginary part of plasma frequency in eV, 0.658/RTIME)
   DFIELD  = 0.0000000 0.0000000 0.0000000 field for delta impulse in time
 
 Orbital magnetization related:
   ORBITALMAG=     F  switch on orbital magnetization
   LCHIMAG   =     F  perturbation theory with respect to B field
   DQ        =  0.001000  dq finite difference perturbation B field
   LLRAUG    =     F  two centre corrections for induced B field



--------------------------------------------------------------------------------------------------------


 Static calculation
 charge density and potential will be updated during run
 non-spin polarized calculation
 RMM-DIIS sequential band-by-band and
  variant of blocked Davidson during initial phase
 perform sub-space diagonalisation
    before iterative eigenvector-optimisation
 modified Broyden-mixing scheme, WC =      100.0
 initial mixing is a Kerker type mixing with AMIX =  0.4000 and BMIX =      1.0000
 Hartree-type preconditioning will be used
 using additional bands           29
 reciprocal scheme for non local part
 use partial core corrections
 calculate Harris-corrections to forces 
   (improved forces if not selfconsistent)
 use gradient corrections 
 use of overlap-Matrix (Vanderbilt PP)
 Gauss-broadening in eV      SIGMA  =   0.05


--------------------------------------------------------------------------------------------------------


  energy-cutoff  :      400.00
  volume of cell :     2620.42
      direct lattice vectors                 reciprocal lattice vectors
    12.300000191  0.000000000  0.000000000     0.081300812 -0.046939053  0.000000000
     6.150000804 10.652112223  0.000000000     0.000000000  0.093878095  0.000000000
     0.000000000  0.000000000 20.000000000     0.000000000  0.000000000  0.050000000

  length of vectors
    12.300000191 12.300000191 20.000000000     0.093878095  0.093878095  0.050000000


 
 old parameters found on file WAVECAR:
  energy-cutoff  :      400.00
  volume of cell :     2620.42
      direct lattice vectors                 reciprocal lattice vectors
    12.300000191  0.000000000  0.000000000     0.081300812 -0.046939053  0.000000000
     6.150000804 10.652112223  0.000000000     0.000000000  0.093878095  0.000000000
     0.000000000  0.000000000 20.000000000     0.000000000  0.000000000  0.050000000

  length of vectors

 
 k-points in units of 2pi/SCALE and weight: K-POINTS                                
   0.00000000  0.00000000  0.00000000       0.111
   0.02710027 -0.01564635  0.00000000       0.222
   0.00000000  0.03129270  0.00000000       0.222
   0.02710027  0.01564635  0.00000000       0.222
  -0.02710027  0.04693905  0.00000000       0.222
 
 k-points in reciprocal lattice and weights: K-POINTS                                
   0.00000000  0.00000000  0.00000000       0.111
   0.33333333  0.00000000  0.00000000       0.222
   0.00000000  0.33333333  0.00000000       0.222
   0.33333333  0.33333333  0.00000000       0.222
  -0.33333333  0.33333333  0.00000000       0.222
 
 position of ions in fractional coordinates (direct lattice) 
   0.00000000  0.00000000  0.41799748
   0.20000000  0.00000000  0.41799748
   0.40000000  0.00000000  0.41799748
   0.60000000  0.00000000  0.41799748
   0.80000000  0.00000000  0.41799748
   0.00000000  0.20000000  0.41799748
   0.20000000  0.20000000  0.41799748
   0.40000000  0.20000000  0.41799748
   0.60000000  0.20000000  0.41799748
   0.80000000  0.20000000  0.41799748
   0.00000000  0.40000000  0.41799748
   0.20000000  0.40000000  0.41799748
   0.40000000  0.40000000  0.41799748
   0.60000000  0.40000000  0.41799748
   0.80000000  0.40000000  0.41799748
   0.00000000  0.60000000  0.41799748
   0.20000000  0.60000000  0.41799748
   0.40000000  0.60000000  0.41799748
   0.60000000  0.60000000  0.41799748
   0.80000000  0.60000000  0.41799748
   0.00000000  0.80000000  0.41799748
   0.20000000  0.80000000  0.41799748
   0.40000000  0.80000000  0.41799748
   0.60000000  0.80000000  0.41799748
   0.80000000  0.80000000  0.41799748
   0.06666667  0.06666660  0.41800609
   0.26666667  0.06747961  0.41800609
   0.46666667  0.06666660  0.41800609
   0.66666667  0.06666660  0.41800609
   0.86666667  0.06666660  0.41800609
   0.06666667  0.26666660  0.41800609
   0.26666667  0.26666660  0.41800609
   0.46666667  0.26666660  0.41800609
   0.66666667  0.26666660  0.41800609
   0.86666667  0.26666660  0.41800609
   0.06666667  0.46666660  0.41800609
   0.26666667  0.46666660  0.41800609
   0.46666667  0.46666660  0.41800609
   0.66666667  0.46666660  0.41800609
   0.86666667  0.46666660  0.41800609
   0.06666667  0.66666660  0.41800609
   0.26666667  0.66666660  0.41800609
   0.46666667  0.66666660  0.41800609
   0.66666667  0.66666660  0.41800609
   0.86666667  0.66666660  0.41800609
   0.06666667  0.86666660  0.41800609
   0.26666667  0.86666660  0.41800609
   0.46666667  0.86666660  0.41800609
   0.66666667  0.86666660  0.41800609
   0.86666667  0.86666660  0.41800609
   0.40000000  0.40000000  0.46800609
 
 position of ions in cartesian coordinates  (Angst):
   0.00000000  0.00000000  8.35994958
   2.46000004  0.00000000  8.35994958
   4.92000008  0.00000000  8.35994958
   7.38000011  0.00000000  8.35994958
   9.84000015  0.00000000  8.35994958
   1.23000016  2.13042244  8.35994958
   3.69000020  2.13042244  8.35994958
   6.15000024  2.13042244  8.35994958
   8.61000028  2.13042244  8.35994958
  11.07000031  2.13042244  8.35994958
   2.46000032  4.26084489  8.35994958
   4.92000036  4.26084489  8.35994958
   7.38000040  4.26084489  8.35994958
   9.84000044  4.26084489  8.35994958
  12.30000047  4.26084489  8.35994958
   3.69000048  6.39126733  8.35994958
   6.15000052  6.39126733  8.35994958
   8.61000056  6.39126733  8.35994958
  11.07000060  6.39126733  8.35994958
  13.53000064  6.39126733  8.35994958
   4.92000064  8.52168978  8.35994958
   7.38000068  8.52168978  8.35994958
   9.84000072  8.52168978  8.35994958
  12.30000076  8.52168978  8.35994958
  14.76000080  8.52168978  8.35994958
   1.22999970  0.71014014  8.36012184
   3.69499974  0.71880039  8.36012184
   6.14999977  0.71014014  8.36012184
   8.60999981  0.71014014  8.36012184
  11.06999985  0.71014014  8.36012184
   2.45999986  2.84056258  8.36012184
   4.91999990  2.84056258  8.36012184
   7.37999994  2.84056258  8.36012184
   9.83999997  2.84056258  8.36012184
  12.30000001  2.84056258  8.36012184
   3.69000002  4.97098503  8.36012184
   6.15000006  4.97098503  8.36012184
   8.61000010  4.97098503  8.36012184
  11.07000013  4.97098503  8.36012184
  13.53000017  4.97098503  8.36012184
   4.92000018  7.10140747  8.36012184
   7.38000022  7.10140747  8.36012184
   9.84000026  7.10140747  8.36012184
  12.30000030  7.10140747  8.36012184
  14.76000033  7.10140747  8.36012184
   6.15000034  9.23182991  8.36012184
   8.61000038  9.23182991  8.36012184
  11.07000042  9.23182991  8.36012184
  13.53000046  9.23182991  8.36012184
  15.99000049  9.23182991  8.36012184
   7.38000040  4.26084489  9.36012184
 


--------------------------------------------------------------------------------------------------------


 k-point  1 :   0.0000 0.0000 0.0000  plane waves:   47639
 k-point  2 :   0.3333 0.0000 0.0000  plane waves:   47601
 k-point  3 :   0.0000 0.3333 0.0000  plane waves:   47601
 k-point  4 :   0.3333 0.3333 0.0000  plane waves:   47601
 k-point  5 :  -0.3333 0.3333 0.0000  plane waves:   47598

 maximum and minimum number of plane-waves per node :      5975     5928

 maximum number of plane-waves:     47639
 maximum index in each direction: 
   IXMAX=   20   IYMAX=   20   IZMAX=   32
   IXMIN=  -20   IYMIN=  -20   IZMIN=  -32


 parallel 3D FFT for wavefunctions:
    minimum data exchange during FFTs selected (reduces bandwidth)
 parallel 3D FFT for charge:
    minimum data exchange during FFTs selected (reduces bandwidth)


 total amount of memory used by VASP MPI-rank0    90113. kBytes
=======================================================================

   base      :      30000. kBytes
   nonl-proj :       8674. kBytes
   fftplans  :      26248. kBytes
   grid      :      14579. kBytes
   one-center:         21. kBytes
   wavefun   :      10591. kBytes
 
     INWAV:  cpu time    0.8111: real time    0.8186
 Broyden mixing: mesh for mixing (old mesh)
   NGX = 41   NGY = 41   NGZ = 65
  (NGX  =160   NGY  =160   NGZ  =280)
  gives a total of 109265 points

 initial charge density was supplied:
 number of electron     206.0000000 magnetization 
 keeping initial charge density in first step


--------------------------------------------------------------------------------------------------------


 Maximum index for augmentation-charges         1119 (set IRDMAX)


--------------------------------------------------------------------------------------------------------


 First call to EWALD:  gamma=   0.129
 Maximum number of real-space cells 3x 3x 2
 Maximum number of reciprocal cells 3x 3x 4

    FEWALD:  cpu time    0.0015: real time    0.0027


--------------------------------------- Iteration      1(   1)  ---------------------------------------


    POTLOK:  cpu time    0.1065: real time    0.1135
    SETDIJ:  cpu time    0.0827: real time    0.0853
     EDDAV:  cpu time    4.1186: real time    4.1292
       DOS:  cpu time    0.0005: real time    0.0005
    CHARGE:  cpu time    0.3648: real time    0.3904
    MIXING:  cpu time    0.0051: real time    0.0054
    --------------------------------------------
      LOOP:  cpu time    4.6783: real time    4.7244

 eigenvalue-minimisations  :  1356
 total energy-change (2. order) :-0.4532920E+03  (-0.2841435E+02)
 number of electron     206.0000000 magnetization 
 augmentation part        5.5094764 magnetization 

 Broyden mixing:
  rms(total) = 0.49806E-01    rms(broyden)= 0.49775E-01
  rms(prec ) = 0.51277E-01
  weight for this iteration     100.00

 Free energy of the ion-electron system (eV)
  ---------------------------------------------------
  alpha Z        PSCENC =        82.54348252
  Ewald energy   TEWEN  =     34516.61432078
  -Hartree energ DENC   =    -41034.91756414
  -exchange      EXHF   =         0.00000000
  -V(xc)+E(xc)   XCENC  =       721.38006458
  PAW double counting   =     22781.19595426   -22817.52509957
  entropy T*S    EENTRO =        -0.00051949
  eigenvalues    EBANDS =     -2491.20702816
  atomic energy  EATOM  =      7788.62438962
  Solvation  Ediel_sol  =         0.00000000
  ---------------------------------------------------
  free energy    TOTEN  =      -453.29199961 eV

  energy without entropy =     -453.29148012  energy(sigma->0) =     -453.29173986


--------------------------------------------------------------------------------------------------------




--------------------------------------- Iteration      1(   2)  ---------------------------------------


    POTLOK:  cpu time    0.0975: real time    0.0986
    SETDIJ:  cpu time    0.0805: real time    0.0818
    EDDIAG:  cpu time    0.8861: real time    0.8867
  RMM-DIIS:  cpu time    3.7250: real time    3.7303
    ORTHCH:  cpu time    0.0407: real time    0.0412
       DOS:  cpu time    0.0004: real time    0.0004
    CHARGE:  cpu time    0.3877: real time    0.3877
    MIXING:  cpu time    0.0062: real time    0.0062
    --------------------------------------------
      LOOP:  cpu time    5.2240: real time    5.2327

 eigenvalue-minimisations  :  1416
 total energy-change (2. order) :-0.9877304E+00  (-0.9901695E+00)
 number of electron     206.0000000 magnetization 
 augmentation part        5.5409271 magnetization 

 Broyden mixing:
  rms(total) = 0.20472E-01    rms(broyden)= 0.20417E-01
  rms(prec ) = 0.21853E-01
  weight for this iteration     100.00

 eigenvalues of (default mixing * dielectric matrix)
  average eigenvalue GAMMA=   0.7406
  0.7406

 Free energy of the ion-electron system (eV)
  ---------------------------------------------------
  alpha Z        PSCENC =        82.54348252
  Ewald energy   TEWEN  =     34516.61432078
  -Hartree energ DENC   =    -41032.39331968
  -exchange      EXHF   =         0.00000000
  -V(xc)+E(xc)   XCENC  =       721.27305595
  PAW double counting   =     22842.00579640   -22878.28381610
  entropy T*S    EENTRO =        -0.00009442
  eigenvalues    EBANDS =     -2494.66354507
  atomic energy  EATOM  =      7788.62438962
  Solvation  Ediel_sol  =         0.00000000
  ---------------------------------------------------
  free energy    TOTEN  =      -454.27973002 eV

  energy without entropy =     -454.27963560  energy(sigma->0) =     -454.27968281


--------------------------------------------------------------------------------------------------------




--------------------------------------- Iteration      1(   3)  ---------------------------------------


    POTLOK:  cpu time    0.1002: real time    0.1036
    SETDIJ:  cpu time    0.0804: real time    0.0815
    EDDIAG:  cpu time    0.8861: real time    0.8868
  RMM-DIIS:  cpu time    4.1686: real time    4.1705
    ORTHCH:  cpu time    0.0411: real time    0.0411
       DOS:  cpu time    0.0004: real time    0.0004
    CHARGE:  cpu time    0.3871: real time    0.3874
    MIXING:  cpu time    0.0052: real time    0.0052
    --------------------------------------------
      LOOP:  cpu time    5.6690: real time    5.6764

 eigenvalue-minimisations  :  1575
 total energy-change (2. order) :-0.5216976E-01  (-0.5843270E-01)
 number of electron     206.0000000 magnetization 
 augmentation part        5.5434381 magnetization 

 Broyden mixing:
  rms(total) = 0.15405E-01    rms(broyden)= 0.15392E-01
  rms(prec ) = 0.15967E-01
  weight for this iteration     100.00

 eigenvalues of (default mixing * dielectric matrix)
  average eigenvalue GAMMA=   0.6825
  0.6825  0.6825

 Free energy of the ion-electron system (eV)
  ---------------------------------------------------
  alpha Z        PSCENC =        82.54348252
  Ewald energy   TEWEN  =     34516.61432078
  -Hartree energ DENC   =    -41033.08909412
  -exchange      EXHF   =         0.00000000
  -V(xc)+E(xc)   XCENC  =       721.30550691
  PAW double counting   =     22830.78400609   -22867.07677835
  entropy T*S    EENTRO =        -0.00012223
  eigenvalues    EBANDS =     -2494.03761100
  atomic energy  EATOM  =      7788.62438962
  Solvation  Ediel_sol  =         0.00000000
  ---------------------------------------------------
  free energy    TOTEN  =      -454.33189977 eV

  energy without entropy =     -454.33177754  energy(sigma->0) =     -454.33183866


--------------------------------------------------------------------------------------------------------




--------------------------------------- Iteration      1(   4)  ---------------------------------------


    POTLOK:  cpu time    0.0969: real time    0.0979
    SETDIJ:  cpu time    0.0804: real time    0.0815
    EDDIAG:  cpu time    0.8832: real time    0.8835
  RMM-DIIS:  cpu time    4.1403: real time    4.1441
    ORTHCH:  cpu time    0.0410: real time    0.0411
       DOS:  cpu time    0.0004: real time    0.0004
    CHARGE:  cpu time    0.3874: real time    0.3876
    MIXING:  cpu time    0.0055: real time    0.0055
    --------------------------------------------
      LOOP:  cpu time    5.6351: real time    5.6415

 eigenvalue-minimisations  :  1574
 total energy-change (2. order) :-0.3942841E-02  (-0.4134761E-02)
 number of electron     206.0000000 magnetization 
 augmentation part        5.5459794 magnetization 

 Broyden mixing:
  rms(total) = 0.15195E-01    rms(broyden)= 0.15194E-01
  rms(prec ) = 0.15674E-01
  weight for this iteration     100.00

 eigenvalues of (default mixing * dielectric matrix)
  average eigenvalue GAMMA=   0.9860
  1.2041  1.2041  0.5496

 Free energy of the ion-electron system (eV)
  ---------------------------------------------------
  alpha Z        PSCENC =        82.54348252
  Ewald energy   TEWEN  =     34516.61432078
  -Hartree energ DENC   =    -41033.42837029
  -exchange      EXHF   =         0.00000000
  -V(xc)+E(xc)   XCENC  =       721.32072967
  PAW double counting   =     22822.06768748   -22858.36811675
  entropy T*S    EENTRO =        -0.00010591
  eigenvalues    EBANDS =     -2493.70985972
  atomic energy  EATOM  =      7788.62438962
  Solvation  Ediel_sol  =         0.00000000
  ---------------------------------------------------
  free energy    TOTEN  =      -454.33584261 eV

  energy without entropy =     -454.33573670  energy(sigma->0) =     -454.33578966


--------------------------------------------------------------------------------------------------------




--------------------------------------- Iteration      1(   5)  ---------------------------------------


    POTLOK:  cpu time    0.0978: real time    0.0981
    SETDIJ:  cpu time    0.0860: real time    0.0860
    EDDIAG:  cpu time    0.8817: real time    0.8818
  RMM-DIIS:  cpu time    3.9892: real time    3.9938
    ORTHCH:  cpu time    0.0411: real time    0.0415
       DOS:  cpu time    0.0004: real time    0.0004
    CHARGE:  cpu time    0.3879: real time    0.3884
    MIXING:  cpu time    0.0047: real time    0.0047
    --------------------------------------------
      LOOP:  cpu time    5.4888: real time    5.4946

 eigenvalue-minimisations  :  1512
 total energy-change (2. order) :-0.1057241E-03  (-0.3180459E-03)
 number of electron     206.0000000 magnetization 
 augmentation part        5.5449547 magnetization 

 Broyden mixing:
  rms(total) = 0.60640E-02    rms(broyden)= 0.60630E-02
  rms(prec ) = 0.62230E-02
  weight for this iteration     100.00

 eigenvalues of (default mixing * dielectric matrix)
  average eigenvalue GAMMA=   1.1603
  1.5133  1.5133  0.5658  1.0490

 Free energy of the ion-electron system (eV)
  ---------------------------------------------------
  alpha Z        PSCENC =        82.54348252
  Ewald energy   TEWEN  =     34516.61432078
  -Hartree energ DENC   =    -41034.34090092
  -exchange      EXHF   =         0.00000000
  -V(xc)+E(xc)   XCENC  =       721.35892322
  PAW double counting   =     22794.92478020   -22831.24497101
  entropy T*S    EENTRO =        -0.00010968
  eigenvalues    EBANDS =     -2492.81586305
  atomic energy  EATOM  =      7788.62438962
  Solvation  Ediel_sol  =         0.00000000
  ---------------------------------------------------
  free energy    TOTEN  =      -454.33594834 eV

  energy without entropy =     -454.33583866  energy(sigma->0) =     -454.33589350


--------------------------------------------------------------------------------------------------------




--------------------------------------- Iteration      1(   6)  ---------------------------------------


    POTLOK:  cpu time    0.0979: real time    0.1009
    SETDIJ:  cpu time    0.0799: real time    0.0813
    EDDIAG:  cpu time    0.8849: real time    0.8860
  RMM-DIIS:  cpu time    4.0461: real time    4.0502
    ORTHCH:  cpu time    0.0406: real time    0.0408
       DOS:  cpu time    0.0004: real time    0.0004
    CHARGE:  cpu time    0.3880: real time    0.3881
    MIXING:  cpu time    0.0044: real time    0.0044
    --------------------------------------------
      LOOP:  cpu time    5.5422: real time    5.5520

 eigenvalue-minimisations  :  1530
 total energy-change (2. order) :-0.2669346E-04  (-0.4841541E-04)
 number of electron     206.0000000 magnetization 
 augmentation part        5.5443497 magnetization 

 Broyden mixing:
  rms(total) = 0.14214E-02    rms(broyden)= 0.14196E-02
  rms(prec ) = 0.14784E-02
  weight for this iteration     100.00

 eigenvalues of (default mixing * dielectric matrix)
  average eigenvalue GAMMA=   1.2132
  2.1261  1.2135  1.2135  0.9482  0.5645

 Free energy of the ion-electron system (eV)
  ---------------------------------------------------
  alpha Z        PSCENC =        82.54348252
  Ewald energy   TEWEN  =     34516.61432078
  -Hartree energ DENC   =    -41034.98793496
  -exchange      EXHF   =         0.00000000
  -V(xc)+E(xc)   XCENC  =       721.38590393
  PAW double counting   =     22775.75411552   -22812.08731518
  entropy T*S    EENTRO =        -0.00011101
  eigenvalues    EBANDS =     -2492.18282624
  atomic energy  EATOM  =      7788.62438962
  Solvation  Ediel_sol  =         0.00000000
  ---------------------------------------------------
  free energy    TOTEN  =      -454.33597503 eV

  energy without entropy =     -454.33586402  energy(sigma->0) =     -454.33591953


--------------------------------------------------------------------------------------------------------




--------------------------------------- Iteration      1(   7)  ---------------------------------------


    POTLOK:  cpu time    0.0973: real time    0.0976
    SETDIJ:  cpu time    0.0867: real time    0.0867
    EDDIAG:  cpu time    0.8951: real time    0.8959
  RMM-DIIS:  cpu time    2.8833: real time    2.8882
    ORTHCH:  cpu time    0.0417: real time    0.0419
       DOS:  cpu time    0.0003: real time    0.0003
    --------------------------------------------
      LOOP:  cpu time    4.0044: real time    4.0107

 eigenvalue-minimisations  :  1029
 total energy-change (2. order) :-0.7420564E-05  (-0.2130845E-05)
 number of electron     206.0000000 magnetization 
 augmentation part        5.5443497 magnetization 

 Free energy of the ion-electron system (eV)
  ---------------------------------------------------
  alpha Z        PSCENC =        82.54348252
  Ewald energy   TEWEN  =     34516.61432078
  -Hartree energ DENC   =    -41034.99963732
  -exchange      EXHF   =         0.00000000
  -V(xc)+E(xc)   XCENC  =       721.38593127
  PAW double counting   =     22777.02823506   -22813.36076079
  entropy T*S    EENTRO =        -0.00011195
  eigenvalues    EBANDS =     -2492.17183163
  atomic energy  EATOM  =      7788.62438962
  Solvation  Ediel_sol  =         0.00000000
  ---------------------------------------------------
  free energy    TOTEN  =      -454.33598245 eV

  energy without entropy =     -454.33587050  energy(sigma->0) =     -454.33592648


--------------------------------------------------------------------------------------------------------




 average (electrostatic) potential at core
  the test charge radii are     0.6991  0.7215
  (the norm of the test charge is              1.0000)
       1 -58.2584       2 -58.2608       3 -58.2034       4 -58.0558       5 -58.2027
       6 -58.2595       7 -58.2739       8 -58.1329       9 -58.1318      10 -58.2751
      11 -58.2039      12 -58.1319      13 -60.6850      14 -58.1325      15 -58.2032
      16 -58.0574      17 -58.1317      18 -58.1324      19 -58.0585      20 -58.0653
      21 -58.2027      22 -58.2758      23 -58.2031      24 -58.0671      25 -58.0648
      26 -58.3785      27 -58.2921      28 -58.2178      29 -58.2204      30 -58.2916
      31 -58.2935      32 -58.3143      33 -58.8113      34 -58.3136      35 -58.2919
      36 -58.2215      37 -58.8105      38 -58.8105      39 -58.2213      40 -58.2228
      41 -58.2213      42 -58.3140      43 -58.2207      44 -58.1643      45 -58.1635
      46 -58.2916      47 -58.2930      48 -58.2259      49 -58.1634      50 -58.2223
      51 -81.5732
 
 
 
 E-fermi :  -3.0164     XC(G=0):  -2.2106     alpha+bet : -1.9409


 k-point     1 :       0.0000    0.0000    0.0000
  band No.  band energies     occupation 
      1     -31.7390      2.00000
      2     -22.2705      2.00000
      3     -21.5073      2.00000
      4     -21.5023      2.00000
      5     -21.3947      2.00000
      6     -21.3938      2.00000
      7     -21.3902      2.00000
      8     -20.8730      2.00000
      9     -19.8791      2.00000
     10     -19.8754      2.00000
     11     -19.5527      2.00000
     12     -19.5451      2.00000
     13     -19.5399      2.00000
     14     -19.1899      2.00000
     15     -18.9012      2.00000
     16     -18.8940      2.00000
     17     -18.6493      2.00000
     18     -18.6436      2.00000
     19     -18.6417      2.00000
     20     -17.8854      2.00000
     21     -17.0213      2.00000
     22     -17.0192      2.00000
     23     -16.4780      2.00000
     24     -16.4617      2.00000
     25     -16.4522      2.00000
     26     -16.0484      2.00000
     27     -15.9964      2.00000
     28     -15.9951      2.00000
     29     -15.5019      2.00000
     30     -15.4983      2.00000
     31     -15.4917      2.00000
     32     -15.0902      2.00000
     33     -14.6310      2.00000
     34     -14.6267      2.00000
     35     -14.1505      2.00000
     36     -14.1487      2.00000
     37     -14.1403      2.00000
     38     -13.9639      2.00000
     39     -12.9926      2.00000
     40     -12.9906      2.00000
     41     -12.0282      2.00000
     42     -11.7707      2.00000
     43     -11.7652      2.00000
     44     -11.7600      2.00000
     45     -11.6929      2.00000
     46     -11.6890      2.00000
     47     -11.6517      2.00000
     48     -11.6502      2.00000
     49     -11.6476      2.00000
     50     -11.6418      2.00000
     51     -10.8075      2.00000
     52     -10.8011      2.00000
     53     -10.4292      2.00000
     54     -10.3340      2.00000
     55     -10.2881      2.00000
     56     -10.2818      2.00000
     57     -10.2741      2.00000
     58     -10.0788      2.00000
     59      -9.6852      2.00000
     60      -9.6819      2.00000
     61      -9.3293      2.00000
     62      -9.3239      2.00000
     63      -9.2987      2.00000
     64      -9.2793      2.00000
     65      -9.2786      2.00000
     66      -9.0445      2.00000
     67      -9.0036      2.00000
     68      -9.0006      2.00000
     69      -8.9565      2.00000
     70      -8.9450      2.00000
     71      -8.9399      2.00000
     72      -8.9333      2.00000
     73      -8.9193      2.00000
     74      -8.9182      2.00000
     75      -8.8934      2.00000
     76      -8.4358      2.00000
     77      -7.8057      2.00000
     78      -7.7992      2.00000
     79      -7.3249      2.00000
     80      -7.3208      2.00000
     81      -7.3171      2.00000
     82      -7.3011      2.00000
     83      -7.2989      2.00000
     84      -7.2937      2.00000
     85      -7.1631      2.00000
     86      -7.1574      2.00000
     87      -7.1546      2.00000
     88      -6.7511      2.00000
     89      -6.5072      2.00000
     90      -6.5021      2.00000
     91      -6.2697      2.00000
     92      -6.2485      2.00000
     93      -6.2466      2.00000
     94      -5.9280      2.00000
     95      -5.9159      2.00000
     96      -5.1980      2.00000
     97      -4.7641      2.00000
     98      -4.7617      2.00000
     99      -4.2728      2.00000
    100      -4.2671      2.00000
    101      -4.2613      2.00000
    102      -3.2143      2.00000
    103      -3.2140      2.00000
    104      -2.9152      0.00419
    105      -1.4665      0.00000
    106      -1.4572      0.00000
    107      -1.4551      0.00000
    108      -0.9933      0.00000
    109      -0.9893      0.00000
    110      -0.5413      0.00000
    111       0.4156      0.00000
    112       0.4210      0.00000
    113       0.4292      0.00000
    114       0.5619      0.00000
    115       0.8404      0.00000
    116       0.8447      0.00000
    117       1.2934      0.00000
    118       1.3399      0.00000
    119       1.6810      0.00000
    120       1.8009      0.00000
    121       1.8027      0.00000
    122       1.8041      0.00000
    123       1.8257      0.00000
    124       1.8262      0.00000
    125       2.0308      0.00000
    126       2.1719      0.00000
    127       2.1784      0.00000
    128       2.1809      0.00000
    129       2.3468      0.00000
    130       2.3506      0.00000
    131       2.6379      0.00000
    132       2.6428      0.00000

 k-point     2 :       0.3333    0.0000    0.0000
  band No.  band energies     occupation 
      1     -31.7391      2.00000
      2     -22.1884      2.00000
      3     -21.8684      2.00000
      4     -21.6635      2.00000
      5     -21.4534      2.00000
      6     -21.0361      2.00000
      7     -20.8943      2.00000
      8     -20.7270      2.00000
      9     -20.4221      2.00000
     10     -20.1587      2.00000
     11     -19.7862      2.00000
     12     -19.7021      2.00000
     13     -19.3257      2.00000
     14     -19.2438      2.00000
     15     -19.0614      2.00000
     16     -18.5940      2.00000
     17     -18.4542      2.00000
     18     -18.1234      2.00000
     19     -18.0605      2.00000
     20     -17.5926      2.00000
     21     -17.4981      2.00000
     22     -17.2948      2.00000
     23     -17.2796      2.00000
     24     -16.8520      2.00000
     25     -16.6572      2.00000
     26     -16.1772      2.00000
     27     -15.9775      2.00000
     28     -15.8472      2.00000
     29     -15.2988      2.00000
     30     -15.1692      2.00000
     31     -15.1335      2.00000
     32     -14.8863      2.00000
     33     -14.7793      2.00000
     34     -14.4777      2.00000
     35     -14.4569      2.00000
     36     -13.7670      2.00000
     37     -13.7579      2.00000
     38     -13.1967      2.00000
     39     -13.0905      2.00000
     40     -12.9335      2.00000
     41     -12.9012      2.00000
     42     -12.5848      2.00000
     43     -12.5496      2.00000
     44     -12.3921      2.00000
     45     -12.0237      2.00000
     46     -11.6620      2.00000
     47     -11.4486      2.00000
     48     -11.2960      2.00000
     49     -11.1212      2.00000
     50     -10.9134      2.00000
     51     -10.8477      2.00000
     52     -10.5823      2.00000
     53     -10.5305      2.00000
     54     -10.2863      2.00000
     55     -10.2366      2.00000
     56     -10.1649      2.00000
     57     -10.0490      2.00000
     58      -9.8528      2.00000
     59      -9.8161      2.00000
     60      -9.6526      2.00000
     61      -9.6088      2.00000
     62      -9.5601      2.00000
     63      -9.5272      2.00000
     64      -9.3765      2.00000
     65      -9.3402      2.00000
     66      -9.2599      2.00000
     67      -9.1752      2.00000
     68      -9.0989      2.00000
     69      -9.0799      2.00000
     70      -8.8656      2.00000
     71      -8.7124      2.00000
     72      -8.6620      2.00000
     73      -8.5042      2.00000
     74      -8.4036      2.00000
     75      -8.2862      2.00000
     76      -8.1342      2.00000
     77      -8.0950      2.00000
     78      -8.0658      2.00000
     79      -7.9696      2.00000
     80      -7.8051      2.00000
     81      -7.6198      2.00000
     82      -7.3601      2.00000
     83      -7.3395      2.00000
     84      -7.2652      2.00000
     85      -7.1964      2.00000
     86      -6.9198      2.00000
     87      -6.8735      2.00000
     88      -6.6926      2.00000
     89      -6.5910      2.00000
     90      -6.3480      2.00000
     91      -6.1848      2.00000
     92      -6.0742      2.00000
     93      -5.9184      2.00000
     94      -5.7408      2.00000
     95      -5.6392      2.00000
     96      -5.3250      2.00000
     97      -5.1149      2.00000
     98      -4.9662      2.00000
     99      -4.9247      2.00000
    100      -4.2701      2.00000
    101      -4.1676      2.00000
    102      -3.3358      2.00000
    103      -3.1364      1.99931
    104      -2.8037      0.00000
    105      -1.5935      0.00000
    106      -1.4231      0.00000
    107      -0.8435      0.00000
    108      -0.8166      0.00000
    109      -0.7041      0.00000
    110      -0.6675      0.00000
    111      -0.1277      0.00000
    112      -0.0037      0.00000
    113       0.2900      0.00000
    114       0.7042      0.00000
    115       0.7272      0.00000
    116       1.0994      0.00000
    117       1.1753      0.00000
    118       1.3671      0.00000
    119       1.4624      0.00000
    120       1.5368      0.00000
    121       1.5701      0.00000
    122       1.6367      0.00000
    123       1.8306      0.00000
    124       1.9118      0.00000
    125       2.0404      0.00000
    126       2.2216      0.00000
    127       2.2713      0.00000
    128       2.3293      0.00000
    129       2.3385      0.00000
    130       2.3947      0.00000
    131       2.4578      0.00000
    132       2.7950      0.00000

 k-point     3 :       0.0000    0.3333    0.0000
  band No.  band energies     occupation 
      1     -31.7391      2.00000
      2     -22.1882      2.00000
      3     -21.8697      2.00000
      4     -21.6622      2.00000
      5     -21.4536      2.00000
      6     -21.0344      2.00000
      7     -20.8962      2.00000
      8     -20.7263      2.00000
      9     -20.4215      2.00000
     10     -20.1624      2.00000
     11     -19.7858      2.00000
     12     -19.6992      2.00000
     13     -19.3282      2.00000
     14     -19.2395      2.00000
     15     -19.0634      2.00000
     16     -18.5927      2.00000
     17     -18.4569      2.00000
     18     -18.1200      2.00000
     19     -18.0629      2.00000
     20     -17.5919      2.00000
     21     -17.4985      2.00000
     22     -17.3009      2.00000
     23     -17.2749      2.00000
     24     -16.8509      2.00000
     25     -16.6588      2.00000
     26     -16.1755      2.00000
     27     -15.9780      2.00000
     28     -15.8465      2.00000
     29     -15.2993      2.00000
     30     -15.1691      2.00000
     31     -15.1336      2.00000
     32     -14.8818      2.00000
     33     -14.7820      2.00000
     34     -14.4756      2.00000
     35     -14.4602      2.00000
     36     -13.7654      2.00000
     37     -13.7597      2.00000
     38     -13.1957      2.00000
     39     -13.0911      2.00000
     40     -12.9353      2.00000
     41     -12.9043      2.00000
     42     -12.5837      2.00000
     43     -12.5524      2.00000
     44     -12.3884      2.00000
     45     -12.0231      2.00000
     46     -11.6610      2.00000
     47     -11.4440      2.00000
     48     -11.2932      2.00000
     49     -11.1208      2.00000
     50     -10.9142      2.00000
     51     -10.8520      2.00000
     52     -10.5839      2.00000
     53     -10.5321      2.00000
     54     -10.2864      2.00000
     55     -10.2364      2.00000
     56     -10.1603      2.00000
     57     -10.0519      2.00000
     58      -9.8535      2.00000
     59      -9.8219      2.00000
     60      -9.6535      2.00000
     61      -9.6083      2.00000
     62      -9.5593      2.00000
     63      -9.5276      2.00000
     64      -9.3716      2.00000
     65      -9.3405      2.00000
     66      -9.2622      2.00000
     67      -9.1757      2.00000
     68      -9.1005      2.00000
     69      -9.0783      2.00000
     70      -8.8639      2.00000
     71      -8.7086      2.00000
     72      -8.6638      2.00000
     73      -8.5032      2.00000
     74      -8.4021      2.00000
     75      -8.2841      2.00000
     76      -8.1343      2.00000
     77      -8.0910      2.00000
     78      -8.0667      2.00000
     79      -7.9701      2.00000
     80      -7.8082      2.00000
     81      -7.6199      2.00000
     82      -7.3604      2.00000
     83      -7.3398      2.00000
     84      -7.2677      2.00000
     85      -7.1997      2.00000
     86      -6.9227      2.00000
     87      -6.8703      2.00000
     88      -6.6894      2.00000
     89      -6.5936      2.00000
     90      -6.3530      2.00000
     91      -6.1800      2.00000
     92      -6.0711      2.00000
     93      -5.9214      2.00000
     94      -5.7388      2.00000
     95      -5.6403      2.00000
     96      -5.3228      2.00000
     97      -5.1149      2.00000
     98      -4.9694      2.00000
     99      -4.9206      2.00000
    100      -4.2701      2.00000
    101      -4.1700      2.00000
    102      -3.3362      2.00000
    103      -3.1371      1.99936
    104      -2.8033      0.00000
    105      -1.5871      0.00000
    106      -1.4238      0.00000
    107      -0.8428      0.00000
    108      -0.8218      0.00000
    109      -0.7053      0.00000
    110      -0.6685      0.00000
    111      -0.1281      0.00000
    112      -0.0054      0.00000
    113       0.2949      0.00000
    114       0.7044      0.00000
    115       0.7245      0.00000
    116       1.1002      0.00000
    117       1.1772      0.00000
    118       1.3643      0.00000
    119       1.4633      0.00000
    120       1.5369      0.00000
    121       1.5730      0.00000
    122       1.6397      0.00000
    123       1.8315      0.00000
    124       1.9128      0.00000
    125       2.0406      0.00000
    126       2.2253      0.00000
    127       2.2743      0.00000
    128       2.3356      0.00000
    129       2.4266      0.00000
    130       2.7398      0.00000
    131       3.2540      0.00000
    132       3.6142      0.00000

 k-point     4 :       0.3333    0.3333    0.0000
  band No.  band energies     occupation 
      1     -31.7391      2.00000
      2     -22.1884      2.00000
      3     -21.8692      2.00000
      4     -21.6601      2.00000
      5     -21.4573      2.00000
      6     -21.0331      2.00000
      7     -20.8973      2.00000
      8     -20.7255      2.00000
      9     -20.4191      2.00000
     10     -20.1636      2.00000
     11     -19.7878      2.00000
     12     -19.6986      2.00000
     13     -19.3289      2.00000
     14     -19.2402      2.00000
     15     -19.0608      2.00000
     16     -18.5914      2.00000
     17     -18.4593      2.00000
     18     -18.1208      2.00000
     19     -18.0641      2.00000
     20     -17.5919      2.00000
     21     -17.4959      2.00000
     22     -17.3013      2.00000
     23     -17.2732      2.00000
     24     -16.8515      2.00000
     25     -16.6584      2.00000
     26     -16.1750      2.00000
     27     -15.9796      2.00000
     28     -15.8454      2.00000
     29     -15.2990      2.00000
     30     -15.1698      2.00000
     31     -15.1354      2.00000
     32     -14.8876      2.00000
     33     -14.7823      2.00000
     34     -14.4756      2.00000
     35     -14.4542      2.00000
     36     -13.7665      2.00000
     37     -13.7589      2.00000
     38     -13.1965      2.00000
     39     -13.0865      2.00000
     40     -12.9355      2.00000
     41     -12.9031      2.00000
     42     -12.5837      2.00000
     43     -12.5495      2.00000
     44     -12.3913      2.00000
     45     -12.0220      2.00000
     46     -11.6617      2.00000
     47     -11.4481      2.00000
     48     -11.2996      2.00000
     49     -11.1238      2.00000
     50     -10.9133      2.00000
     51     -10.8522      2.00000
     52     -10.5826      2.00000
     53     -10.5320      2.00000
     54     -10.2827      2.00000
     55     -10.2366      2.00000
     56     -10.1580      2.00000
     57     -10.0493      2.00000
     58      -9.8533      2.00000
     59      -9.8171      2.00000
     60      -9.6536      2.00000
     61      -9.6069      2.00000
     62      -9.5618      2.00000
     63      -9.5254      2.00000
     64      -9.3699      2.00000
     65      -9.3419      2.00000
     66      -9.2594      2.00000
     67      -9.1732      2.00000
     68      -9.1014      2.00000
     69      -9.0824      2.00000
     70      -8.8636      2.00000
     71      -8.7132      2.00000
     72      -8.6654      2.00000
     73      -8.5035      2.00000
     74      -8.4070      2.00000
     75      -8.2875      2.00000
     76      -8.1343      2.00000
     77      -8.0963      2.00000
     78      -8.0676      2.00000
     79      -7.9716      2.00000
     80      -7.8089      2.00000
     81      -7.6156      2.00000
     82      -7.3594      2.00000
     83      -7.3355      2.00000
     84      -7.2627      2.00000
     85      -7.1946      2.00000
     86      -6.9225      2.00000
     87      -6.8692      2.00000
     88      -6.6942      2.00000
     89      -6.5894      2.00000
     90      -6.3436      2.00000
     91      -6.1895      2.00000
     92      -6.0745      2.00000
     93      -5.9221      2.00000
     94      -5.7380      2.00000
     95      -5.6430      2.00000
     96      -5.3256      2.00000
     97      -5.1125      2.00000
     98      -4.9715      2.00000
     99      -4.9216      2.00000
    100      -4.2685      2.00000
    101      -4.1670      2.00000
    102      -3.3360      2.00000
    103      -3.1355      1.99924
    104      -2.8039      0.00000
    105      -1.5947      0.00000
    106      -1.4266      0.00000
    107      -0.8365      0.00000
    108      -0.8205      0.00000
    109      -0.7038      0.00000
    110      -0.6678      0.00000
    111      -0.1244      0.00000
    112      -0.0074      0.00000
    113       0.2943      0.00000
    114       0.7045      0.00000
    115       0.7282      0.00000
    116       1.0995      0.00000
    117       1.1755      0.00000
    118       1.3622      0.00000
    119       1.4643      0.00000
    120       1.5612      0.00000
    121       1.5792      0.00000
    122       1.7514      0.00000
    123       1.8319      0.00000
    124       2.1785      0.00000
    125       2.3357      0.00000
    126       2.3968      0.00000
    127       2.6165      0.00000
    128       2.7879      0.00000
    129       2.8476      0.00000
    130       3.2036      0.00000
    131       3.5941      0.00000
    132       4.1734      0.00000

 k-point     5 :      -0.3333    0.3333    0.0000
  band No.  band energies     occupation 
      1     -31.7391      2.00000
      2     -22.0793      2.00000
      3     -22.0075      2.00000
      4     -21.8026      2.00000
      5     -21.1704      2.00000
      6     -21.1529      2.00000
      7     -20.8655      2.00000
      8     -20.4119      2.00000
      9     -20.3391      2.00000
     10     -20.1711      2.00000
     11     -20.1521      2.00000
     12     -20.1417      2.00000
     13     -19.5679      2.00000
     14     -18.8282      2.00000
     15     -18.6731      2.00000
     16     -18.3745      2.00000
     17     -18.3452      2.00000
     18     -18.3360      2.00000
     19     -17.9291      2.00000
     20     -17.8008      2.00000
     21     -17.6022      2.00000
     22     -17.2612      2.00000
     23     -17.1501      2.00000
     24     -17.1238      2.00000
     25     -16.5424      2.00000
     26     -16.4363      2.00000
     27     -16.2846      2.00000
     28     -15.8092      2.00000
     29     -15.6295      2.00000
     30     -15.1742      2.00000
     31     -14.9701      2.00000
     32     -14.6497      2.00000
     33     -13.9600      2.00000
     34     -13.9417      2.00000
     35     -13.9234      2.00000
     36     -13.8744      2.00000
     37     -13.8640      2.00000
     38     -13.7912      2.00000
     39     -13.6740      2.00000
     40     -13.4935      2.00000
     41     -13.0380      2.00000
     42     -12.4734      2.00000
     43     -12.2528      2.00000
     44     -12.0732      2.00000
     45     -11.8272      2.00000
     46     -11.7716      2.00000
     47     -11.5588      2.00000
     48     -11.5473      2.00000
     49     -11.5219      2.00000
     50     -10.9281      2.00000
     51     -10.8172      2.00000
     52     -10.5300      2.00000
     53     -10.2100      2.00000
     54     -10.2023      2.00000
     55     -10.1897      2.00000
     56     -10.0939      2.00000
     57     -10.0535      2.00000
     58     -10.0220      2.00000
     59      -9.9022      2.00000
     60      -9.7533      2.00000
     61      -9.7489      2.00000
     62      -9.5633      2.00000
     63      -9.4388      2.00000
     64      -9.4050      2.00000
     65      -9.2019      2.00000
     66      -9.0478      2.00000
     67      -9.0319      2.00000
     68      -8.9036      2.00000
     69      -8.8846      2.00000
     70      -8.6872      2.00000
     71      -8.6400      2.00000
     72      -8.6360      2.00000
     73      -8.6208      2.00000
     74      -8.5815      2.00000
     75      -8.3720      2.00000
     76      -8.2546      2.00000
     77      -8.1602      2.00000
     78      -8.0344      2.00000
     79      -7.9845      2.00000
     80      -7.8789      2.00000
     81      -7.8594      2.00000
     82      -7.8532      2.00000
     83      -7.2277      2.00000
     84      -7.1837      2.00000
     85      -7.1275      2.00000
     86      -6.8845      2.00000
     87      -6.7229      2.00000
     88      -6.6087      2.00000
     89      -6.4607      2.00000
     90      -6.2689      2.00000
     91      -6.1013      2.00000
     92      -5.9193      2.00000
     93      -5.9081      2.00000
     94      -5.8978      2.00000
     95      -5.4518      2.00000
     96      -5.4243      2.00000
     97      -5.1244      2.00000
     98      -5.0114      2.00000
     99      -4.9811      2.00000
    100      -4.9576      2.00000
    101      -3.7323      2.00000
    102      -3.4571      2.00000
    103      -3.2796      2.00000
    104      -2.3873      0.00000
    105      -2.2251      0.00000
    106      -0.9313      0.00000
    107      -0.8773      0.00000
    108      -0.8684      0.00000
    109      -0.5381      0.00000
    110      -0.2647      0.00000
    111      -0.2110      0.00000
    112       0.2513      0.00000
    113       0.2549      0.00000
    114       0.2654      0.00000
    115       0.5993      0.00000
    116       0.7921      0.00000
    117       0.9486      0.00000
    118       0.9731      0.00000
    119       1.0605      0.00000
    120       1.7337      0.00000
    121       1.7470      0.00000
    122       1.7664      0.00000
    123       1.8265      0.00000
    124       2.1185      0.00000
    125       2.1237      0.00000
    126       2.1269      0.00000
    127       2.2453      0.00000
    128       2.2478      0.00000
    129       2.3616      0.00000
    130       2.9978      0.00000
    131       3.0105      0.00000
    132       3.0393      0.00000


--------------------------------------------------------------------------------------------------------


 soft charge-density along one line, spin component           1
         0         1         2         3         4         5         6         7         8         9
 total charge-density along one line
 
 pseudopotential strength for first ion, spin component:           1
 10.222  13.593   0.000  -0.000   0.000  -0.000   0.000  -0.000
 13.593  18.076   0.000  -0.000   0.000  -0.000   0.000  -0.000
  0.000   0.000  -4.352  -0.000  -0.000   8.512   0.000   0.000
 -0.000  -0.000  -0.000  -4.344  -0.000   0.000   8.502   0.000
  0.000   0.000  -0.000  -0.000  -4.352   0.000   0.000   8.512
 -0.000  -0.000   8.512   0.000   0.000 -18.786  -0.000  -0.000
  0.000   0.000   0.000   8.502   0.000  -0.000 -18.775  -0.000
 -0.000  -0.000   0.000   0.000   8.512  -0.000  -0.000 -18.786
 total augmentation occupancy for first ion, spin component:           1
  8.358  -3.741   0.001   0.000   0.002   0.000   0.000   0.001
 -3.741   1.730  -0.002  -0.000  -0.003  -0.000   0.000  -0.000
  0.001  -0.002   1.840  -0.000  -0.001   0.174   0.000   0.000
  0.000  -0.000  -0.000   1.223  -0.000   0.000   0.078   0.000
  0.002  -0.003  -0.001  -0.000   1.839   0.000   0.000   0.174
  0.000  -0.000   0.174   0.000   0.000   0.018   0.000   0.000
  0.000   0.000   0.000   0.078   0.000   0.000   0.005   0.000
  0.001  -0.000   0.000   0.000   0.174   0.000   0.000   0.018


------------------------ aborting loop because EDIFF is reached ----------------------------------------


    CHARGE:  cpu time    0.4068: real time    0.4074
    FORLOC:  cpu time    0.0272: real time    0.0272
    FORNL :  cpu time    1.9607: real time    1.9617
    STRESS:  cpu time    3.2916: real time    3.2930
    FORCOR:  cpu time    0.1199: real time    0.1199
    FORHAR:  cpu time    0.0481: real time    0.0482
    MIXING:  cpu time    0.0036: real time    0.0036
    OFIELD:  cpu time    0.0001: real time    0.0001

  FORCE on cell =-STRESS in cart. coord.  units (eV):
  Direction    XX          YY          ZZ          XY          YZ          ZX
  --------------------------------------------------------------------------------------
  Alpha Z    82.54348    82.54348    82.54348
  Ewald   41232.69227 41236.35949-47952.45811    -1.04307     0.04130     0.04153
  Hartree 40516.49384 40516.87292-39998.57131    -0.10048     0.03660     0.03655
  E(xc)    -777.16168  -777.14998  -804.23549    -0.00367     0.00001     0.00004
  Local  -83987.20947-83990.49579 85337.35471     0.93260    -0.07588    -0.07574
  n-local  -203.95196  -203.91628  -194.69154    -0.00805     0.00136     0.00164
  augment   -12.37773   -12.38348   -14.04734     0.00066    -0.00018    -0.00014
  Kinetic  3164.41347  3163.83964  3596.27486     0.17822    -0.00843    -0.00921
  Fock        0.00000     0.00000     0.00000     0.00000     0.00000     0.00000
  -------------------------------------------------------------------------------------
  Total      15.44221    15.67000    52.16927    -0.04379    -0.00522    -0.00533
  in kB       9.44168     9.58095    31.89734    -0.02678    -0.00319    -0.00326
  external pressure =       16.97 kB  Pullay stress =        0.00 kB


 VOLUME and BASIS-vectors are now :
 -----------------------------------------------------------------------------
  energy-cutoff  :      400.00
  volume of cell :     2620.42
      direct lattice vectors                 reciprocal lattice vectors
    12.300000191  0.000000000  0.000000000     0.081300812 -0.046939053  0.000000000
     6.150000804 10.652112223  0.000000000     0.000000000  0.093878095  0.000000000
     0.000000000  0.000000000 20.000000000     0.000000000  0.000000000  0.050000000

  length of vectors
    12.300000191 12.300000191 20.000000000     0.093878095  0.093878095  0.050000000


 FORCES acting on ions
    electron-ion (+dipol)            ewald-force                    non-local-force                 convergence-correction
 -----------------------------------------------------------------------------------------------
   -.155E+01 -.842E+00 0.279E+01   0.141E+01 0.762E+00 -.278E+01   0.783E-01 0.473E-01 -.190E-03   -.761E-03 0.115E-02 0.711E-03
   0.240E+00 -.110E+01 0.279E+01   0.508E-01 0.113E+01 -.278E+01   -.819E-01 0.997E-01 -.408E-03   0.103E-02 0.119E-02 0.386E-05
   0.411E+01 0.712E+01 0.381E+01   -.415E+01 -.717E+01 -.377E+01   -.710E-01 0.152E+00 -.705E-01   0.859E-03 0.458E-02 0.175E-03
   -.279E-01 0.129E+02 0.480E+01   0.249E-01 -.131E+02 -.494E+01   0.950E-02 0.105E-01 0.112E+00   -.130E-02 0.440E-02 0.299E-04
   -.372E+01 0.643E+01 0.381E+01   0.376E+01 -.649E+01 -.377E+01   0.114E+00 0.768E-01 -.716E-01   -.178E-02 0.322E-02 0.452E-03
   0.492E-01 0.180E+01 0.279E+01   -.462E-01 -.164E+01 -.278E+01   0.349E-02 -.906E-01 -.266E-03   0.162E-02 0.699E-03 0.380E-03
   0.121E+02 0.552E+01 0.489E+01   -.117E+02 -.514E+01 -.494E+01   0.152E+00 0.961E-01 0.519E-01   0.232E-02 -.809E-03 -.939E-04
   0.207E+02 0.362E+02 0.186E+02   -.212E+02 -.371E+02 -.190E+02   0.632E+00 0.657E+00 0.545E+00   0.944E-03 0.321E-02 0.103E-02
   -.209E+02 0.362E+02 0.186E+02   0.215E+02 -.371E+02 -.190E+02   -.640E+00 0.655E+00 0.546E+00   -.445E-02 0.355E-02 0.226E-03
   -.117E+02 0.674E+01 0.489E+01   0.113E+02 -.656E+01 -.494E+01   -.108E+00 0.634E-01 0.525E-01   -.203E-02 0.925E-03 -.328E-04
   0.746E+01 -.587E-01 0.381E+01   -.754E+01 0.492E-01 -.377E+01   0.116E-01 -.142E+00 -.715E-01   0.294E-02 -.751E-03 0.353E-03
   0.418E+02 -.140E+00 0.186E+02   -.428E+02 0.911E-01 -.190E+02   0.886E+00 0.229E+00 0.546E+00   0.362E-02 0.122E-02 -.344E-03
   -.245E-01 -.255E-01 0.291E+03   0.307E-01 0.304E-01 -.346E+03   0.117E-02 0.345E-03 0.713E+01   -.264E-02 -.187E-02 0.738E-02
   -.418E+02 -.516E-01 0.186E+02   0.429E+02 0.123E-01 -.190E+02   -.885E+00 0.226E+00 0.545E+00   -.421E-02 -.739E-03 -.499E-03
   -.740E+01 -.124E-01 0.381E+01   0.747E+01 0.376E-02 -.377E+01   -.962E-02 -.137E+00 -.713E-01   -.115E-02 0.431E-03 0.538E-03
   0.111E+02 -.646E+01 0.480E+01   -.113E+02 0.657E+01 -.494E+01   0.113E-01 -.780E-02 0.111E+00   0.343E-02 -.285E-02 -.434E-03
   0.209E+02 -.362E+02 0.186E+02   -.214E+02 0.371E+02 -.190E+02   0.248E+00 -.878E+00 0.546E+00   0.491E-03 -.498E-02 0.716E-04
   -.210E+02 -.363E+02 0.186E+02   0.214E+02 0.371E+02 -.190E+02   -.248E+00 -.880E+00 0.546E+00   -.217E-02 -.939E-03 0.170E-03
   -.111E+02 -.646E+01 0.480E+01   0.113E+02 0.657E+01 -.494E+01   -.102E-01 -.659E-02 0.112E+00   -.326E-02 -.121E-02 -.704E-04
   0.161E-01 -.149E+01 0.282E+01   -.155E-01 0.157E+01 -.278E+01   -.135E-02 -.858E-01 -.149E-01   0.907E-03 -.249E-02 0.593E-03
   0.369E+01 -.643E+01 0.381E+01   -.372E+01 0.650E+01 -.377E+01   0.123E+00 0.592E-01 -.715E-01   0.104E-02 -.346E-02 0.500E-03
   -.758E-01 -.135E+02 0.489E+01   0.658E-01 0.132E+02 -.494E+01   0.355E-02 -.122E+00 0.526E-01   0.143E-05 -.330E-02 0.119E-03
   -.366E+01 -.660E+01 0.381E+01   0.370E+01 0.667E+01 -.377E+01   -.119E+00 0.573E-01 -.717E-01   -.112E-02 -.132E-02 0.374E-04
   -.123E+01 0.737E+00 0.282E+01   0.130E+01 -.776E+00 -.278E+01   -.826E-01 0.496E-01 -.150E-01   -.921E-03 0.202E-02 0.453E-03
   0.128E+01 0.740E+00 0.282E+01   -.135E+01 -.778E+00 -.278E+01   0.736E-01 0.425E-01 -.149E-01   0.138E-02 0.751E-03 0.700E-03
   -.127E+00 0.101E+00 0.250E+01   0.159E+00 -.127E+00 -.250E+01   -.479E-02 0.162E-02 -.102E-01   0.122E-02 0.864E-03 0.306E-03
   0.648E+01 0.611E+01 0.342E+01   -.648E+01 -.664E+01 -.339E+01   -.214E+00 -.248E+00 -.240E-01   0.318E-02 0.577E-02 -.122E-03
   0.591E+01 0.172E+02 0.687E+01   -.566E+01 -.172E+02 -.650E+01   -.355E-01 0.167E+00 -.121E+00   0.389E-03 0.229E-02 0.368E-03
   -.610E+01 0.171E+02 0.688E+01   0.584E+01 -.171E+02 -.650E+01   0.692E-01 0.162E+00 -.122E+00   -.174E-02 0.396E-02 0.303E-03
   -.533E+01 0.408E+01 0.341E+01   0.517E+01 -.431E+01 -.338E+01   0.706E-01 0.390E-02 -.239E-01   -.144E-02 0.230E-02 0.466E-03
   0.633E+01 0.250E+01 0.341E+01   -.648E+01 -.223E+01 -.338E+01   -.276E-01 -.676E-01 -.238E-01   0.439E-02 0.216E-03 0.250E-03
   0.282E+02 0.161E+02 0.126E+02   -.284E+02 -.162E+02 -.131E+02   -.140E+00 -.712E-01 0.147E+00   0.157E-02 -.359E-03 0.161E-03
   -.503E-01 0.878E+02 0.586E+02   0.556E-01 -.922E+02 -.663E+02   -.981E-03 -.637E+00 0.331E+01   0.167E-02 0.475E-02 0.134E-02
   -.283E+02 0.163E+02 0.126E+02   0.286E+02 -.165E+02 -.131E+02   0.159E+00 -.914E-01 0.145E+00   -.371E-02 0.133E-02 -.134E-04
   -.617E+01 0.258E+01 0.341E+01   0.628E+01 -.232E+01 -.338E+01   0.329E-01 -.631E-01 -.239E-01   -.185E-02 0.515E-03 0.483E-03
   0.179E+02 -.336E+01 0.688E+01   -.177E+02 0.355E+01 -.650E+01   0.106E+00 -.138E+00 -.121E+00   0.295E-02 -.173E-02 -.240E-03
   0.760E+02 -.439E+02 0.586E+02   -.798E+02 0.462E+02 -.663E+02   -.552E+00 0.319E+00 0.331E+01   0.396E-02 -.179E-02 0.271E-02
   -.760E+02 -.439E+02 0.587E+02   0.799E+02 0.461E+02 -.663E+02   0.557E+00 0.322E+00 0.330E+01   -.392E-02 -.525E-02 0.496E-03
   -.179E+02 -.332E+01 0.688E+01   0.177E+02 0.350E+01 -.650E+01   -.106E+00 -.137E+00 -.121E+00   -.191E-02 -.111E-02 -.109E-04
   0.197E-01 -.622E+00 0.293E+01   -.237E-01 0.861E+00 -.290E+01   0.102E-02 -.154E+00 -.522E-01   0.103E-02 -.250E-02 0.340E-03
   0.118E+02 -.139E+02 0.688E+01   -.118E+02 0.136E+02 -.650E+01   0.172E+00 -.234E-01 -.122E+00   0.340E-02 -.340E-02 0.298E-03
   -.262E-01 -.327E+02 0.126E+02   0.258E-01 0.331E+02 -.131E+02   0.660E-03 0.185E+00 0.145E+00   -.142E-02 -.334E-02 -.122E-03
   -.118E+02 -.139E+02 0.688E+01   0.119E+02 0.136E+02 -.650E+01   -.171E+00 -.231E-01 -.121E+00   -.160E-02 -.156E-02 0.131E-03
   -.382E+01 -.224E+01 0.282E+01   0.376E+01 0.220E+01 -.286E+01   -.206E-01 -.795E-02 0.130E-01   -.245E-02 -.143E-02 0.574E-03
   0.385E+01 -.223E+01 0.282E+01   -.379E+01 0.220E+01 -.286E+01   0.189E-01 -.116E-01 0.129E-01   0.298E-02 -.252E-02 0.268E-03
   0.819E+00 -.665E+01 0.341E+01   -.109E+01 0.662E+01 -.338E+01   0.394E-01 0.589E-01 -.239E-01   0.890E-03 -.357E-02 0.478E-03
   -.102E+01 -.689E+01 0.341E+01   0.131E+01 0.687E+01 -.338E+01   -.293E-01 0.837E-01 -.238E-01   -.226E-03 -.220E-02 0.898E-04
   -.355E+00 0.206E+00 0.294E+01   0.542E+00 -.348E+00 -.290E+01   -.144E+00 0.107E+00 -.524E-01   -.131E-02 0.133E-02 0.130E-03
   0.159E-01 0.446E+01 0.282E+01   -.105E-01 -.439E+01 -.286E+01   -.135E-02 0.198E-01 0.130E-01   -.112E-02 0.377E-02 0.375E-03
   0.514E+00 0.303E+00 0.293E+01   -.718E+00 -.421E+00 -.290E+01   0.134E+00 0.768E-01 -.519E-01   0.114E-02 -.921E-04 0.539E-03
   -.183E-01 -.311E-01 -.722E+03   0.417E-01 0.416E-01 0.846E+03   -.212E-01 -.140E-01 -.638E+02   -.738E-02 -.170E-02 -.172E-01
 -----------------------------------------------------------------------------------------------
   0.241E-01 0.127E-01 0.440E+02   0.717E-14 -.789E-13 -.455E-12   -.165E-01 -.891E-02 -.440E+02   -.656E-02 -.284E-02 0.485E-02
 
 
 POSITION                                       TOTAL-FORCE (eV/Angst)
 -----------------------------------------------------------------------------------
      0.00000      0.00000      8.35995        -0.057525     -0.031172      0.009411
      2.46000      0.00000      8.35995         0.209619      0.129577      0.009332
      4.92000      0.00000      8.35995        -0.107235      0.107475     -0.025958
      7.38000      0.00000      8.35995         0.005092     -0.203877     -0.026996
      9.84000      0.00000      8.35995         0.159201      0.014098     -0.026162
      1.23000      2.13042      8.35995         0.008165      0.070147      0.009345
      3.69000      2.13042      8.35995         0.475394      0.483260      0.000255
      6.15000      2.13042      8.35995         0.078876     -0.200979      0.165323
      8.61000      2.13042      8.35995        -0.097304     -0.203842      0.165253
     11.07000      2.13042      8.35995        -0.431422      0.250947      0.000019
      2.46000      4.26084      8.35995        -0.066290     -0.152401     -0.025895
      4.92000      4.26084      8.35995        -0.126262      0.180819      0.165250
      7.38000      4.26084      8.35995         0.004689      0.003326    -48.162765
      9.84000      4.26084      8.35995         0.130364      0.186016      0.164994
     12.30000      4.26084      8.35995         0.068255     -0.145037     -0.026128
      3.69000      6.39127      8.35995        -0.181090      0.101844     -0.026997
      6.15000      6.39127      8.35995        -0.224197      0.023717      0.165248
      8.61000      6.39127      8.35995         0.224747      0.015303      0.164601
     11.07000      6.39127      8.35995         0.180791      0.103704     -0.026968
     13.53000      6.39127      8.35995         0.000084     -0.012869      0.017819
      4.92000      8.52169      8.35995         0.088701      0.129907     -0.026193
      7.38000      8.52169      8.35995        -0.006426     -0.493271      0.000061
      9.84000      8.52169      8.35995        -0.082118      0.122590     -0.025898
     12.30000      8.52169      8.35995        -0.012210      0.012307      0.017852
     14.76000      8.52169      8.35995         0.008675      0.005615      0.017825
      1.23000      0.71014      8.36012         0.027837     -0.023767     -0.006061
      3.69500      0.71880      8.36012        -0.210206     -0.772664      0.010159
      6.15000      0.71014      8.36012         0.215417      0.228579      0.256608
      8.61000      0.71014      8.36012        -0.194263      0.248331      0.257247
     11.07000      0.71014      8.36012        -0.094636     -0.221389      0.010118
      2.46000      2.84056      8.36012        -0.170592      0.201320      0.010029
      4.92000      2.84056      8.36012        -0.411138     -0.216144     -0.355843
      7.38000      2.84056      8.36012         0.005961     -5.071278     -4.346137
      9.84000      2.84056      8.36012         0.444817     -0.256294     -0.355261
     12.30000      2.84056      8.36012         0.140858      0.193275      0.010105
      3.69000      4.97099      8.36012         0.315273      0.045830      0.257259
      6.15000      4.97099      8.36012        -4.394230      2.536104     -4.347679
      8.61000      4.97099      8.36012         4.397557      2.541848     -4.351439
     11.07000      4.97099      8.36012        -0.314697      0.042979      0.256990
     13.53000      4.97099      8.36012        -0.001976      0.082475     -0.022107
      4.92000      7.10141      8.36012         0.120795     -0.292721      0.257032
      7.38000      7.10141      8.36012        -0.001246      0.511057     -0.355423
      9.84000      7.10141      8.36012        -0.118371     -0.288247      0.257318
     12.30000      7.10141      8.36012        -0.083721     -0.047939     -0.026500
     14.76000      7.10141      8.36012         0.082093     -0.046808     -0.026424
      6.15000      9.23183      8.36012        -0.234169      0.027692      0.010045
      8.61000      9.23183      8.36012         0.256776      0.065702      0.010145
     11.07000      9.23183      8.36012         0.042383     -0.034561     -0.021931
     13.53000      9.23183      8.36012         0.002905      0.095541     -0.026418
     15.99000      9.23183      8.36012        -0.068812     -0.040971     -0.022063
      7.38000      4.26084      9.36012        -0.005189     -0.005153     59.987604
 -----------------------------------------------------------------------------------
    total drift:                                0.001042      0.000943     -0.000659


--------------------------------------------------------------------------------------------------------



  FREE ENERGIE OF THE ION-ELECTRON SYSTEM (eV)
  ---------------------------------------------------
  free  energy   TOTEN  =      -454.33598245 eV

  energy  without entropy=     -454.33587050  energy(sigma->0) =     -454.33592648
 


--------------------------------------------------------------------------------------------------------


    POTLOK:  cpu time    0.1770: real time    0.1771


--------------------------------------------------------------------------------------------------------


 stress matrix after NEB project (eV)
     15.44221     -0.04379     -0.00533
     -0.04379     15.67000     -0.00522
     -0.00533     -0.00522     52.16927
  FORCES: max atom, RMS    59.987604   10.897953
  FORCE total and by dimension   77.826949   59.987604
  Stress total and by dimension   56.618434   52.169266
     LOOP+:  cpu time   42.3669: real time   42.4628
    4ORBIT:  cpu time    0.0000: real time    0.0000

 total amount of memory used by VASP MPI-rank0    90113. kBytes
=======================================================================

   base      :      30000. kBytes
   nonl-proj :       8674. kBytes
   fftplans  :      26248. kBytes
   grid      :      14579. kBytes
   one-center:         21. kBytes
   wavefun   :      10591. kBytes
 
  
  
 General timing and accounting informations for this job:
 ========================================================
  
                  Total CPU time used (sec):       49.941
                            User time (sec):       46.798
                          System time (sec):        3.143
                         Elapsed time (sec):       50.187
  
                   Maximum memory used (kb):      369200.
                   Average memory used (kb):           0.
  
                          Minor page faults:       104862
                          Major page faults:            0
                 Voluntary context switches:         1424
