<?xml version="1.0" encoding="ISO-8859-1"?>
<modeling>
 <generator>
  <i name="program" type="string">vasp </i>
  <i name="version" type="string">5.4.4.18Apr17-6-g9f103f2a35  </i>
  <i name="subversion" type="string">(build Aug 13 2022 23:40:43) complex            parallel </i>
  <i name="platform" type="string">LinuxIFC </i>
  <i name="date" type="string">2024 11 10 </i>
  <i name="time" type="string">04:07:47 </i>
 </generator>
 <incar>
  <i type="int" name="ISTART">     1</i>
  <i type="string" name="PREC">accurate</i>
  <i type="string" name="ALGO"> F          N:DAV,fine,slow</i>
  <i type="logical" name="ADDGRID"> T  </i>
  <i type="int" name="ISPIN">     1</i>
  <i type="int" name="ICHARG">     1</i>
  <i type="int" name="NELM">   300</i>
  <i type="int" name="IBRION">    -1</i>
  <i name="EDIFF">      0.00001000</i>
  <i name="EDIFFG">     -0.00100000</i>
  <i type="int" name="NSW">     1</i>
  <i type="int" name="ISIF">     2</i>
  <i name="ENCUT">    400.00000000</i>
  <i type="logical" name="LREAL"> F  </i>
  <i type="int" name="ISMEAR">     0</i>
  <i name="SIGMA">      0.05000000</i>
  <i type="logical" name="LWAVE"> F  </i>
  <i type="logical" name="LCHARG"> F  </i>
  <v type="int" name="KPOINT_BSE">    -1     0     0     0</v>
  <i type="int" name="NELM">   300</i>
 </incar>
 <structure name="primitive_cell" >
  <crystal>
   <varray name="basis" >
    <v>      12.30000019       0.00000000       0.00000000 </v>
    <v>       6.15000080      10.65211222       0.00000000 </v>
    <v>       0.00000000       0.00000000      20.00000000 </v>
   </varray>
   <i name="volume">   2620.41964732 </i>
   <varray name="rec_basis" >
    <v>       0.08130081      -0.04693905       0.00000000 </v>
    <v>       0.00000000       0.09387809       0.00000000 </v>
    <v>       0.00000000       0.00000000       0.05000000 </v>
   </varray>
  </crystal>
  <varray name="positions" >
   <v>       0.00000000       0.00000000       0.41799748 </v>
   <v>       0.06666667       0.06666660       0.41800609 </v>
   <v>      -0.13333333       0.06666660       0.41800609 </v>
   <v>       0.06666667      -0.13333340       0.41800609 </v>
   <v>      -0.20000000       0.20000000       0.41799748 </v>
   <v>       0.20000000      -0.20000000       0.41799748 </v>
   <v>       0.20000000       0.00000000       0.41799748 </v>
   <v>      -0.20000000       0.00000000       0.41799748 </v>
   <v>       0.00000000       0.20000000       0.41799748 </v>
   <v>       0.00000000      -0.20000000       0.41799748 </v>
   <v>      -0.13333333       0.26666660       0.41800609 </v>
   <v>       0.26666667      -0.13333340       0.41800609 </v>
   <v>      -0.13333333      -0.13333340       0.41800609 </v>
   <v>       0.06666667       0.26666660       0.41800609 </v>
   <v>      -0.33333333       0.26666660       0.41800609 </v>
   <v>      -0.33333333       0.06666660       0.41800609 </v>
   <v>       0.26666667      -0.33333340       0.41800609 </v>
   <v>       0.06666667      -0.33333340       0.41800609 </v>
   <v>       0.26666667       0.06747961       0.41800609 </v>
   <v>      -0.40000000       0.20000000       0.41799748 </v>
   <v>       0.40000000      -0.20000000       0.41799748 </v>
   <v>      -0.20000000       0.40000000       0.41799748 </v>
   <v>       0.20000000      -0.40000000       0.41799748 </v>
   <v>       0.20000000       0.20000000       0.41799748 </v>
   <v>      -0.20000000      -0.20000000       0.41799748 </v>
   <v>      -0.40000000       0.40000000       0.41799748 </v>
   <v>       0.40000000      -0.40000000       0.41799748 </v>
   <v>       0.40000000       0.00000000       0.41799748 </v>
   <v>      -0.40000000       0.00000000       0.41799748 </v>
   <v>       0.00000000       0.40000000       0.41799748 </v>
   <v>       0.00000000      -0.40000000       0.41799748 </v>
   <v>      -0.13333333       0.46666660       0.41800609 </v>
   <v>      -0.33333333       0.46666660       0.41800609 </v>
   <v>       0.46666667      -0.13333340       0.41800609 </v>
   <v>       0.46666667      -0.33333340       0.41800609 </v>
   <v>      -0.33333333      -0.13333340       0.41800609 </v>
   <v>      -0.13333333      -0.33333340       0.41800609 </v>
   <v>       0.26666667       0.26666660       0.41800609 </v>
   <v>       0.46666667       0.26666660       0.41800609 </v>
   <v>       0.26666667       0.46666660       0.41800609 </v>
   <v>       0.06666667       0.46666660       0.41800609 </v>
   <v>       0.46666667       0.46666660       0.41800609 </v>
   <v>       0.46666667       0.06666660       0.41800609 </v>
   <v>       0.40000000       0.40000000       0.41799748 </v>
   <v>      -0.40000000      -0.40000000       0.41799748 </v>
   <v>       0.40000000       0.20000000       0.41799748 </v>
   <v>      -0.40000000      -0.20000000       0.41799748 </v>
   <v>       0.20000000       0.40000000       0.41799748 </v>
   <v>      -0.20000000      -0.40000000       0.41799748 </v>
   <v>       0.40000000       0.40000000       0.46800609 </v>
   <v>      -0.33333333      -0.33333340       0.41800609 </v>
  </varray>
 </structure>
 <varray name="primitive_index" >
  <v type="int" >        1 </v>
  <v type="int" >       26 </v>
  <v type="int" >       30 </v>
  <v type="int" >       46 </v>
  <v type="int" >       10 </v>
  <v type="int" >       22 </v>
  <v type="int" >        2 </v>
  <v type="int" >        5 </v>
  <v type="int" >        6 </v>
  <v type="int" >       21 </v>
  <v type="int" >       35 </v>
  <v type="int" >       47 </v>
  <v type="int" >       50 </v>
  <v type="int" >       31 </v>
  <v type="int" >       34 </v>
  <v type="int" >       29 </v>
  <v type="int" >       42 </v>
  <v type="int" >       41 </v>
  <v type="int" >       27 </v>
  <v type="int" >        9 </v>
  <v type="int" >       23 </v>
  <v type="int" >       15 </v>
  <v type="int" >       17 </v>
  <v type="int" >        7 </v>
  <v type="int" >       25 </v>
  <v type="int" >       14 </v>
  <v type="int" >       18 </v>
  <v type="int" >        3 </v>
  <v type="int" >        4 </v>
  <v type="int" >       11 </v>
  <v type="int" >       16 </v>
  <v type="int" >       40 </v>
  <v type="int" >       39 </v>
  <v type="int" >       48 </v>
  <v type="int" >       43 </v>
  <v type="int" >       49 </v>
  <v type="int" >       45 </v>
  <v type="int" >       32 </v>
  <v type="int" >       33 </v>
  <v type="int" >       37 </v>
  <v type="int" >       36 </v>
  <v type="int" >       38 </v>
  <v type="int" >       28 </v>
  <v type="int" >       13 </v>
  <v type="int" >       19 </v>
  <v type="int" >        8 </v>
  <v type="int" >       24 </v>
  <v type="int" >       12 </v>
  <v type="int" >       20 </v>
  <v type="int" >       51 </v>
  <v type="int" >       44 </v>
 </varray>
 <kpoints>
  <generation param="Gamma">
   <v type="int" name="divisions">       3        3        1 </v>
   <v name="usershift">      0.00000000       0.00000000       0.00000000 </v>
   <v name="genvec1">      0.33333333      -0.00000000       0.00000000 </v>
   <v name="genvec2">      0.00000000       0.33333333       0.00000000 </v>
   <v name="genvec3">      0.00000000       0.00000000       1.00000000 </v>
   <v name="shift">      0.00000000       0.00000000       0.00000000 </v>
  </generation>
  <varray name="kpointlist" >
   <v>       0.00000000       0.00000000       0.00000000 </v>
   <v>       0.33333333       0.00000000       0.00000000 </v>
   <v>       0.00000000       0.33333333       0.00000000 </v>
   <v>       0.33333333       0.33333333       0.00000000 </v>
   <v>      -0.33333333       0.33333333       0.00000000 </v>
  </varray>
  <varray name="weights" >
   <v>       0.11111111 </v>
   <v>       0.22222222 </v>
   <v>       0.22222222 </v>
   <v>       0.22222222 </v>
   <v>       0.22222222 </v>
  </varray>
 </kpoints>
 <parameters>
  <separator name="general" >
   <i type="string" name="SYSTEM"></i>
   <i type="logical" name="LCOMPAT"> F  </i>
  </separator>
  <separator name="electronic" >
   <i type="string" name="PREC">accura</i>
   <i name="ENMAX">    400.00000000</i>
   <i name="ENAUG">    644.87300000</i>
   <i name="EDIFF">      0.00001000</i>
   <i type="int" name="IALGO">    68</i>
   <i type="int" name="IWAVPR">    10</i>
   <i type="int" name="NBANDS">   132</i>
   <i name="NELECT">    206.00000000</i>
   <i type="int" name="TURBO">     0</i>
   <i type="int" name="IRESTART">     0</i>
   <i type="int" name="NREBOOT">     0</i>
   <i type="int" name="NMIN">     0</i>
   <i name="EREF">      0.00000000</i>
   <separator name="electronic smearing" >
    <i type="int" name="ISMEAR">     0</i>
    <i name="SIGMA">      0.05000000</i>
    <i name="KSPACING">      0.50000000</i>
    <i type="logical" name="KGAMMA"> T  </i>
   </separator>
   <separator name="electronic projectors" >
    <i type="logical" name="LREAL"> F  </i>
    <v name="ROPT">      0.00000000      0.00000000</v>
    <i type="int" name="LMAXPAW">  -100</i>
    <i type="int" name="LMAXMIX">     2</i>
    <i type="logical" name="NLSPLINE"> F  </i>
   </separator>
   <separator name="electronic startup" >
    <i type="int" name="ISTART">     1</i>
    <i type="int" name="ICHARG">     1</i>
    <i type="int" name="INIWAV">     1</i>
   </separator>
   <separator name="electronic spin" >
    <i type="int" name="ISPIN">     1</i>
    <i type="logical" name="LNONCOLLINEAR"> F  </i>
    <v name="MAGMOM">      1.00000000      1.00000000      1.00000000      1.00000000      1.00000000      1.00000000      1.00000000      1.00000000      1.00000000      1.00000000      1.00000000      1.00000000      1.00000000      1.00000000      1.00000000      1.00000000      1.00000000      1.00000000      1.00000000      1.00000000
      1.00000000      1.00000000      1.00000000      1.00000000      1.00000000      1.00000000      1.00000000      1.00000000      1.00000000      1.00000000      1.00000000      1.00000000      1.00000000      1.00000000      1.00000000      1.00000000      1.00000000      1.00000000      1.00000000      1.00000000
      1.00000000      1.00000000      1.00000000      1.00000000      1.00000000      1.00000000      1.00000000      1.00000000      1.00000000      1.00000000      1.00000000</v>
    <i name="NUPDOWN">     -1.00000000</i>
    <i type="logical" name="LSORBIT"> F  </i>
    <v name="SAXIS">      0.00000000      0.00000000      1.00000000</v>
    <i type="logical" name="LSPIRAL"> F  </i>
    <v name="QSPIRAL">      0.00000000      0.00000000      0.00000000</v>
    <i type="logical" name="LZEROZ"> F  </i>
   </separator>
   <separator name="electronic exchange-correlation" >
    <i type="logical" name="LASPH"> F  </i>
    <i type="logical" name="LMETAGGA"> F  </i>
   </separator>
   <separator name="electronic convergence" >
    <i type="int" name="NELM">   300</i>
    <i type="int" name="NELMDL">     0</i>
    <i type="int" name="NELMIN">     2</i>
    <i name="ENINI">    400.00000000</i>
    <separator name="electronic convergence detail" >
     <i type="logical" name="LDIAG"> T  </i>
     <i type="logical" name="LSUBROT"> F  </i>
     <i name="WEIMIN">      0.00000000</i>
     <i name="EBREAK">      0.00000002</i>
     <i name="DEPER">      0.30000000</i>
     <i type="int" name="NRMM">     4</i>
     <i name="TIME">      0.40000000</i>
    </separator>
   </separator>
   <separator name="electronic mixer" >
    <i name="AMIX">      0.40000000</i>
    <i name="BMIX">      1.00000000</i>
    <i name="AMIN">      0.10000000</i>
    <i name="AMIX_MAG">      1.60000000</i>
    <i name="BMIX_MAG">      1.00000000</i>
    <separator name="electronic mixer details" >
     <i type="int" name="IMIX">     4</i>
     <i type="logical" name="MIXFIRST"> F  </i>
     <i type="int" name="MAXMIX">   -45</i>
     <i name="WC">    100.00000000</i>
     <i type="int" name="INIMIX">     1</i>
     <i type="int" name="MIXPRE">     1</i>
     <i type="int" name="MREMOVE">     5</i>
    </separator>
   </separator>
   <separator name="electronic dipolcorrection" >
    <i type="logical" name="LDIPOL"> F  </i>
    <i type="logical" name="LMONO"> F  </i>
    <i type="int" name="IDIPOL">     0</i>
    <i name="EPSILON">      1.00000000</i>
    <v name="DIPOL">   -100.00000000   -100.00000000   -100.00000000</v>
    <i name="EFIELD">      0.00000000</i>
   </separator>
  </separator>
  <separator name="grids" >
   <i type="int" name="NGX">    80</i>
   <i type="int" name="NGY">    80</i>
   <i type="int" name="NGZ">   140</i>
   <i type="int" name="NGXF">   160</i>
   <i type="int" name="NGYF">   160</i>
   <i type="int" name="NGZF">   280</i>
   <i type="logical" name="ADDGRID"> T  </i>
  </separator>
  <separator name="ionic" >
   <i type="int" name="NSW">     1</i>
   <i type="int" name="IBRION">    -1</i>
   <i type="int" name="MDALGO">     0</i>
   <i type="int" name="ISIF">     2</i>
   <i name="PSTRESS">      0.00000000</i>
   <i name="EDIFFG">     -0.00100000</i>
   <i type="int" name="NFREE">     0</i>
   <i name="POTIM">      0.50000000</i>
   <i name="SMASS">     -3.00000000</i>
   <i name="SCALEE">      1.00000000</i>
  </separator>
  <separator name="ionic md" >
   <i name="TEBEG">      0.00010000</i>
   <i name="TEEND">      0.00010000</i>
   <i type="int" name="NBLOCK">     1</i>
   <i type="int" name="KBLOCK">     1</i>
   <i type="int" name="NPACO">   256</i>
   <i name="APACO">     16.00000000</i>
  </separator>
  <separator name="symmetry" >
   <i type="int" name="ISYM">     2</i>
   <i name="SYMPREC">      0.00001000</i>
  </separator>
  <separator name="dos" >
   <i type="int" name="LORBIT">     0</i>
   <v name="RWIGS">     -1.00000000     -1.00000000</v>
   <i type="int" name="NEDOS">   301</i>
   <i name="EMIN">     10.00000000</i>
   <i name="EMAX">    -10.00000000</i>
   <i name="EFERMI">      0.00000000</i>
  </separator>
  <separator name="writing" >
   <i type="int" name="NWRITE">     2</i>
   <i type="logical" name="LWAVE"> F  </i>
   <i type="logical" name="LDOWNSAMPLE"> F  </i>
   <i type="logical" name="LCHARG"> F  </i>
   <i type="logical" name="LPARD"> F  </i>
   <i type="logical" name="LVTOT"> F  </i>
   <i type="logical" name="LVHAR"> F  </i>
   <i type="logical" name="LELF"> F  </i>
   <i type="logical" name="LOPTICS"> F  </i>
   <v name="STM">      0.00000000      0.00000000      0.00000000      0.00000000      0.00000000      0.00000000      0.00000000</v>
  </separator>
  <separator name="performance" >
   <i type="int" name="NPAR">     6</i>
   <i type="int" name="NSIM">     4</i>
   <i type="int" name="NBLK">    -1</i>
   <i type="logical" name="LPLANE"> T  </i>
   <i type="logical" name="LSCALAPACK"> T  </i>
   <i type="logical" name="LSCAAWARE"> F  </i>
   <i type="logical" name="LSCALU"> F  </i>
   <i type="logical" name="LASYNC"> F  </i>
   <i type="logical" name="LORBITALREAL"> F  </i>
  </separator>
  <separator name="miscellaneous" >
   <i type="int" name="IDIOT">     3</i>
   <i type="int" name="ISPECIAL">     0</i>
   <i type="logical" name="LMUSIC"> F  </i>
   <v name="POMASS">     12.01100000     16.00000000</v>
   <v name="DARWINR">      0.00000000      0.00000000</v>
   <v name="DARWINV">      1.00000000      1.00000000</v>
   <i type="logical" name="LCORR"> T  </i>
  </separator>
  <i type="logical" name="GGA_COMPAT"> T  </i>
  <i type="logical" name="LBERRY"> F  </i>
  <i type="int" name="ICORELEVEL">     0</i>
  <i type="logical" name="LDAU"> F  </i>
  <i type="int" name="I_CONSTRAINED_M">     0</i>
  <separator name="electronic exchange-correlation" >
   <i type="string" name="GGA">--</i>
   <i type="int" name="VOSKOWN">     0</i>
   <i type="logical" name="LHFCALC"> F  </i>
   <i type="string" name="PRECFOCK"></i>
   <i type="logical" name="LSYMGRAD"> F  </i>
   <i type="logical" name="LHFONE"> F  </i>
   <i type="logical" name="LRHFCALC"> F  </i>
   <i type="logical" name="LTHOMAS"> F  </i>
   <i type="logical" name="LMODELHF"> F  </i>
   <i name="ENCUT4O">     -1.00000000</i>
   <i type="int" name="EXXOEP">     0</i>
   <i type="int" name="FOURORBIT">     0</i>
   <i name="AEXX">      0.00000000</i>
   <i name="HFALPHA">      0.00000000</i>
   <i name="MCALPHA">      0.00000000</i>
   <i name="ALDAX">      1.00000000</i>
   <i name="AGGAX">      1.00000000</i>
   <i name="ALDAC">      1.00000000</i>
   <i name="AGGAC">      1.00000000</i>
   <i type="int" name="NKREDX">     1</i>
   <i type="int" name="NKREDY">     1</i>
   <i type="int" name="NKREDZ">     1</i>
   <i type="logical" name="SHIFTRED"> F  </i>
   <i type="logical" name="ODDONLY"> F  </i>
   <i type="logical" name="EVENONLY"> F  </i>
   <i type="int" name="LMAXFOCK">     0</i>
   <i type="int" name="NMAXFOCKAE">     0</i>
   <i type="logical" name="LFOCKAEDFT"> F  </i>
   <i name="HFSCREEN">      0.00000000</i>
   <i name="HFSCREENC">      0.00000000</i>
   <i type="int" name="NBANDSGWLOW">     0</i>
  </separator>
  <separator name="vdW DFT" >
   <i type="logical" name="LUSE_VDW"> F  </i>
   <i name="Zab_VDW">     -0.84910000</i>
   <i name="PARAM1">      0.12340000</i>
   <i name="PARAM2">      1.00000000</i>
   <i name="PARAM3">      0.00000000</i>
  </separator>
  <separator name="model GW" >
   <i type="int" name="MODEL_GW">     0</i>
   <i name="MODEL_EPS0">     30.82846644</i>
   <i name="MODEL_ALPHA">      1.00000000</i>
  </separator>
  <separator name="linear response parameters" >
   <i type="logical" name="LEPSILON"> F  </i>
   <i type="logical" name="LRPA"> F  </i>
   <i type="logical" name="LNABLA"> F  </i>
   <i type="logical" name="LVEL"> F  </i>
   <i type="int" name="KINTER">     0</i>
   <i name="CSHIFT">      0.10000000</i>
   <i name="OMEGAMAX">     -1.00000000</i>
   <i name="DEG_THRESHOLD">      0.00200000</i>
   <i name="RTIME">     -0.10000000</i>
   <i name="WPLASMAI">      0.00000000</i>
   <v name="DFIELD">      0.00000000      0.00000000      0.00000000</v>
   <v name="WPLASMA">      0.00000000      0.00000000      0.00000000      0.00000000      0.00000000      0.00000000      0.00000000      0.00000000      0.00000000</v>
  </separator>
  <separator name="orbital magnetization" >
   <i type="logical" name="NUCIND"> F  </i>
   <v name="MAGPOS">      0.00000000      0.00000000      0.00000000</v>
   <i type="logical" name="LNICSALL"> T  </i>
   <i type="logical" name="ORBITALMAG"> F  </i>
   <i type="logical" name="LMAGBLOCH"> F  </i>
   <i type="logical" name="LCHIMAG"> F  </i>
   <i type="logical" name="LGAUGE"> T  </i>
   <i type="int" name="MAGATOM">     0</i>
   <v name="MAGDIPOL">      0.00000000      0.00000000      0.00000000</v>
   <v name="AVECCONST">      0.00000000      0.00000000      0.00000000</v>
  </separator>
  <separator name="response functions" >
   <i type="logical" name="LADDER"> F  </i>
   <i type="logical" name="LRPAFORCE"> F  </i>
   <i type="logical" name="LFXC"> F  </i>
   <i type="logical" name="LHARTREE"> T  </i>
   <i type="int" name="IBSE">     0</i>
   <v type="int" name="KPOINT">    -1     0     0     0</v>
   <i type="logical" name="LTCTE"> F  </i>
   <i type="logical" name="LTETE"> F  </i>
   <i type="logical" name="LTRIPLET"> F  </i>
   <i type="logical" name="LFXCEPS"> F  </i>
   <i type="logical" name="LFXHEG"> F  </i>
   <i type="int" name="NATURALO">     2</i>
   <i type="logical" name="L2ORDER"> F  </i>
   <i type="logical" name="LMP2LT"> F  </i>
   <i type="logical" name="LUSEW"> F  </i>
   <i name="ENCUTGW">     -2.00000000</i>
   <i name="ENCUTGWSOFT">     -2.00000000</i>
   <i name="ENCUTLF">     -1.00000000</i>
   <i type="int" name="LMAXMP2">    -1</i>
   <i name="SCISSOR">      0.00000000</i>
   <i type="int" name="NOMEGA">     0</i>
   <i type="int" name="NOMEGAR">     0</i>
   <i type="int" name="NBANDSGW">    -1</i>
   <i type="int" name="NBANDSO">    -1</i>
   <i type="int" name="NBANDSV">    -1</i>
   <i type="int" name="NELM">   300</i>
   <i type="int" name="NELMHF">     1</i>
   <i type="int" name="DIM">     3</i>
   <i type="int" name="ANTIRES">     0</i>
   <i name="OMEGAMAX">    -30.00000000</i>
   <i name="OMEGAMIN">    -30.00000000</i>
   <i name="OMEGATL">   -200.00000000</i>
   <i type="int" name="OMEGAGRID">   140</i>
   <i name="CSHIFT">     -0.10000000</i>
   <i type="logical" name="SELFENERGY"> F  </i>
   <i type="logical" name="LSPECTRAL"> F  </i>
   <i type="logical" name="LSPECTRALGW"> F  </i>
   <i type="logical" name="LSINGLES"> F  </i>
   <i type="logical" name="LFERMIGW"> F  </i>
   <i type="logical" name="ODDONLYGW"> F  </i>
   <i type="logical" name="EVENONLYGW"> F  </i>
   <i type="int" name="NKREDLFX">     1</i>
   <i type="int" name="NKREDLFY">     1</i>
   <i type="int" name="NKREDLFZ">     1</i>
   <i type="int" name="MAXMEM">  2800</i>
   <i type="int" name="TELESCOPE">     0</i>
   <i type="int" name="TAUPAR">     1</i>
   <i type="int" name="OMEGAPAR">    -1</i>
   <i name="LAMBDA">      1.00000000</i>
  </separator>
  <separator name="External order field" >
   <i name="OFIELD_KAPPA">      0.00000000</i>
   <v name="OFIELD_K">      0.00000000      0.00000000      0.00000000</v>
   <i name="OFIELD_Q6_NEAR">      0.00000000</i>
   <i name="OFIELD_Q6_FAR">      0.00000000</i>
   <i name="OFIELD_A">      0.00000000</i>
  </separator>
 </parameters>
 <atominfo>
  <atoms>      51 </atoms>
  <types>       2 </types>
  <array name="atoms" >
   <dimension dim="1">ion</dimension>
   <field type="string">element</field>
   <field type="int">atomtype</field>
   <set>
    <rc><c>C </c><c>   1</c></rc>
    <rc><c>C </c><c>   1</c></rc>
    <rc><c>C </c><c>   1</c></rc>
    <rc><c>C </c><c>   1</c></rc>
    <rc><c>C </c><c>   1</c></rc>
    <rc><c>C </c><c>   1</c></rc>
    <rc><c>C </c><c>   1</c></rc>
    <rc><c>C </c><c>   1</c></rc>
    <rc><c>C </c><c>   1</c></rc>
    <rc><c>C </c><c>   1</c></rc>
    <rc><c>C </c><c>   1</c></rc>
    <rc><c>C </c><c>   1</c></rc>
    <rc><c>C </c><c>   1</c></rc>
    <rc><c>C </c><c>   1</c></rc>
    <rc><c>C </c><c>   1</c></rc>
    <rc><c>C </c><c>   1</c></rc>
    <rc><c>C </c><c>   1</c></rc>
    <rc><c>C </c><c>   1</c></rc>
    <rc><c>C </c><c>   1</c></rc>
    <rc><c>C </c><c>   1</c></rc>
    <rc><c>C </c><c>   1</c></rc>
    <rc><c>C </c><c>   1</c></rc>
    <rc><c>C </c><c>   1</c></rc>
    <rc><c>C </c><c>   1</c></rc>
    <rc><c>C </c><c>   1</c></rc>
    <rc><c>C </c><c>   1</c></rc>
    <rc><c>C </c><c>   1</c></rc>
    <rc><c>C </c><c>   1</c></rc>
    <rc><c>C </c><c>   1</c></rc>
    <rc><c>C </c><c>   1</c></rc>
    <rc><c>C </c><c>   1</c></rc>
    <rc><c>C </c><c>   1</c></rc>
    <rc><c>C </c><c>   1</c></rc>
    <rc><c>C </c><c>   1</c></rc>
    <rc><c>C </c><c>   1</c></rc>
    <rc><c>C </c><c>   1</c></rc>
    <rc><c>C </c><c>   1</c></rc>
    <rc><c>C </c><c>   1</c></rc>
    <rc><c>C </c><c>   1</c></rc>
    <rc><c>C </c><c>   1</c></rc>
    <rc><c>C </c><c>   1</c></rc>
    <rc><c>C </c><c>   1</c></rc>
    <rc><c>C </c><c>   1</c></rc>
    <rc><c>C </c><c>   1</c></rc>
    <rc><c>C </c><c>   1</c></rc>
    <rc><c>C </c><c>   1</c></rc>
    <rc><c>C </c><c>   1</c></rc>
    <rc><c>C </c><c>   1</c></rc>
    <rc><c>C </c><c>   1</c></rc>
    <rc><c>C </c><c>   1</c></rc>
    <rc><c>O </c><c>   2</c></rc>
   </set>
  </array>
  <array name="atomtypes" >
   <dimension dim="1">type</dimension>
   <field type="int">atomspertype</field>
   <field type="string">element</field>
   <field>mass</field>
   <field>valence</field>
   <field type="string">pseudopotential</field>
   <set>
    <rc><c>  50</c><c>C </c><c>     12.01100000</c><c>      4.00000000</c><c>  PAW_PBE C 08Apr2002                   </c></rc>
    <rc><c>   1</c><c>O </c><c>     16.00000000</c><c>      6.00000000</c><c>  PAW_PBE O 08Apr2002                   </c></rc>
   </set>
  </array>
 </atominfo>
 <structure name="initialpos" >
  <crystal>
   <varray name="basis" >
    <v>      12.30000019       0.00000000       0.00000000 </v>
    <v>       6.15000080      10.65211222       0.00000000 </v>
    <v>       0.00000000       0.00000000      20.00000000 </v>
   </varray>
   <i name="volume">   2620.41964732 </i>
   <varray name="rec_basis" >
    <v>       0.08130081      -0.04693905       0.00000000 </v>
    <v>       0.00000000       0.09387809       0.00000000 </v>
    <v>       0.00000000       0.00000000       0.05000000 </v>
   </varray>
  </crystal>
  <varray name="positions" >
   <v>       0.00000000       0.00000000       0.41799748 </v>
   <v>       0.20000000       0.00000000       0.41799748 </v>
   <v>       0.40000000       0.00000000       0.41799748 </v>
   <v>       0.60000000       0.00000000       0.41799748 </v>
   <v>       0.80000000       0.00000000       0.41799748 </v>
   <v>       0.00000000       0.20000000       0.41799748 </v>
   <v>       0.20000000       0.20000000       0.41799748 </v>
   <v>       0.40000000       0.20000000       0.41799748 </v>
   <v>       0.60000000       0.20000000       0.41799748 </v>
   <v>       0.80000000       0.20000000       0.41799748 </v>
   <v>       0.00000000       0.40000000       0.41799748 </v>
   <v>       0.20000000       0.40000000       0.41799748 </v>
   <v>       0.40000000       0.40000000       0.41799748 </v>
   <v>       0.60000000       0.40000000       0.41799748 </v>
   <v>       0.80000000       0.40000000       0.41799748 </v>
   <v>       0.00000000       0.60000000       0.41799748 </v>
   <v>       0.20000000       0.60000000       0.41799748 </v>
   <v>       0.40000000       0.60000000       0.41799748 </v>
   <v>       0.60000000       0.60000000       0.41799748 </v>
   <v>       0.80000000       0.60000000       0.41799748 </v>
   <v>       0.00000000       0.80000000       0.41799748 </v>
   <v>       0.20000000       0.80000000       0.41799748 </v>
   <v>       0.40000000       0.80000000       0.41799748 </v>
   <v>       0.60000000       0.80000000       0.41799748 </v>
   <v>       0.80000000       0.80000000       0.41799748 </v>
   <v>       0.06666667       0.06666660       0.41800609 </v>
   <v>       0.26666667       0.06747961       0.41800609 </v>
   <v>       0.46666667       0.06666660       0.41800609 </v>
   <v>       0.66666667       0.06666660       0.41800609 </v>
   <v>       0.86666667       0.06666660       0.41800609 </v>
   <v>       0.06666667       0.26666660       0.41800609 </v>
   <v>       0.26666667       0.26666660       0.41800609 </v>
   <v>       0.46666667       0.26666660       0.41800609 </v>
   <v>       0.66666667       0.26666660       0.41800609 </v>
   <v>       0.86666667       0.26666660       0.41800609 </v>
   <v>       0.06666667       0.46666660       0.41800609 </v>
   <v>       0.26666667       0.46666660       0.41800609 </v>
   <v>       0.46666667       0.46666660       0.41800609 </v>
   <v>       0.66666667       0.46666660       0.41800609 </v>
   <v>       0.86666667       0.46666660       0.41800609 </v>
   <v>       0.06666667       0.66666660       0.41800609 </v>
   <v>       0.26666667       0.66666660       0.41800609 </v>
   <v>       0.46666667       0.66666660       0.41800609 </v>
   <v>       0.66666667       0.66666660       0.41800609 </v>
   <v>       0.86666667       0.66666660       0.41800609 </v>
   <v>       0.06666667       0.86666660       0.41800609 </v>
   <v>       0.26666667       0.86666660       0.41800609 </v>
   <v>       0.46666667       0.86666660       0.41800609 </v>
   <v>       0.66666667       0.86666660       0.41800609 </v>
   <v>       0.86666667       0.86666660       0.41800609 </v>
   <v>       0.40000000       0.40000000       0.46800609 </v>
  </varray>
  <varray name="velocities" >
   <v>       0.00000000       0.00000000       0.00000000 </v>
   <v>       0.00000000       0.00000000       0.00000000 </v>
   <v>       0.00000000       0.00000000       0.00000000 </v>
   <v>       0.00000000       0.00000000       0.00000000 </v>
   <v>       0.00000000       0.00000000       0.00000000 </v>
   <v>       0.00000000       0.00000000       0.00000000 </v>
   <v>       0.00000000       0.00000000       0.00000000 </v>
   <v>       0.00000000       0.00000000       0.00000000 </v>
   <v>       0.00000000       0.00000000       0.00000000 </v>
   <v>       0.00000000       0.00000000       0.00000000 </v>
   <v>       0.00000000       0.00000000       0.00000000 </v>
   <v>       0.00000000       0.00000000       0.00000000 </v>
   <v>       0.00000000       0.00000000       0.00000000 </v>
   <v>       0.00000000       0.00000000       0.00000000 </v>
   <v>       0.00000000       0.00000000       0.00000000 </v>
   <v>       0.00000000       0.00000000       0.00000000 </v>
   <v>       0.00000000       0.00000000       0.00000000 </v>
   <v>       0.00000000       0.00000000       0.00000000 </v>
   <v>       0.00000000       0.00000000       0.00000000 </v>
   <v>       0.00000000       0.00000000       0.00000000 </v>
   <v>       0.00000000       0.00000000       0.00000000 </v>
   <v>       0.00000000       0.00000000       0.00000000 </v>
   <v>       0.00000000       0.00000000       0.00000000 </v>
   <v>       0.00000000       0.00000000       0.00000000 </v>
   <v>       0.00000000       0.00000000       0.00000000 </v>
   <v>       0.00000000       0.00000000       0.00000000 </v>
   <v>       0.00000000       0.00000000       0.00000000 </v>
   <v>       0.00000000       0.00000000       0.00000000 </v>
   <v>       0.00000000       0.00000000       0.00000000 </v>
   <v>       0.00000000       0.00000000       0.00000000 </v>
   <v>       0.00000000       0.00000000       0.00000000 </v>
   <v>       0.00000000       0.00000000       0.00000000 </v>
   <v>       0.00000000       0.00000000       0.00000000 </v>
   <v>       0.00000000       0.00000000       0.00000000 </v>
   <v>       0.00000000       0.00000000       0.00000000 </v>
   <v>       0.00000000       0.00000000       0.00000000 </v>
   <v>       0.00000000       0.00000000       0.00000000 </v>
   <v>       0.00000000       0.00000000       0.00000000 </v>
   <v>       0.00000000       0.00000000       0.00000000 </v>
   <v>       0.00000000       0.00000000       0.00000000 </v>
   <v>       0.00000000       0.00000000       0.00000000 </v>
   <v>       0.00000000       0.00000000       0.00000000 </v>
   <v>       0.00000000       0.00000000       0.00000000 </v>
   <v>       0.00000000       0.00000000       0.00000000 </v>
   <v>       0.00000000       0.00000000       0.00000000 </v>
   <v>       0.00000000       0.00000000       0.00000000 </v>
   <v>       0.00000000       0.00000000       0.00000000 </v>
   <v>       0.00000000       0.00000000       0.00000000 </v>
   <v>       0.00000000       0.00000000       0.00000000 </v>
   <v>       0.00000000       0.00000000       0.00000000 </v>
   <v>       0.00000000       0.00000000       0.00000000 </v>
  </varray>
 </structure>
 <calculation>
  <scstep>
   <time name="dav">    4.12    4.13</time>
   <time name="total">    4.68    4.72</time>
   <energy>
    <i name="alphaZ">     82.54348252 </i>
    <i name="ewald">  34516.61432078 </i>
    <i name="hartreedc"> -41034.91756414 </i>
    <i name="XCdc">    721.38006458 </i>
    <i name="pawpsdc">  22781.19595426 </i>
    <i name="pawaedc"> -22817.52509957 </i>
    <i name="eentropy">     -0.00051949 </i>
    <i name="bandstr">  -2491.20702816 </i>
    <i name="atom">   7788.62438962 </i>
    <i name="e_fr_energy">   -453.29199961 </i>
    <i name="e_wo_entrp">   -453.29148012 </i>
    <i name="e_0_energy">   -453.29173986 </i>
   </energy>
  </scstep>
  <scstep>
   <time name="diag">    0.89    0.89</time>
   <time name="diis">    3.72    3.73</time>
   <time name="orth">    0.04    0.04</time>
   <time name="total">    5.22    5.23</time>
   <energy>
    <i name="e_fr_energy">   -454.27973002 </i>
    <i name="e_wo_entrp">   -454.27963560 </i>
    <i name="e_0_energy">   -454.27968281 </i>
   </energy>
  </scstep>
  <scstep>
   <time name="diag">    0.89    0.89</time>
   <time name="diis">    4.17    4.17</time>
   <time name="orth">    0.04    0.04</time>
   <time name="total">    5.67    5.68</time>
   <energy>
    <i name="e_fr_energy">   -454.33189977 </i>
    <i name="e_wo_entrp">   -454.33177754 </i>
    <i name="e_0_energy">   -454.33183866 </i>
   </energy>
  </scstep>
  <scstep>
   <time name="diag">    0.88    0.88</time>
   <time name="diis">    4.14    4.14</time>
   <time name="orth">    0.04    0.04</time>
   <time name="total">    5.64    5.64</time>
   <energy>
    <i name="e_fr_energy">   -454.33584261 </i>
    <i name="e_wo_entrp">   -454.33573670 </i>
    <i name="e_0_energy">   -454.33578966 </i>
   </energy>
  </scstep>
  <scstep>
   <time name="diag">    0.88    0.88</time>
   <time name="diis">    3.99    3.99</time>
   <time name="orth">    0.04    0.04</time>
   <time name="total">    5.49    5.49</time>
   <energy>
    <i name="e_fr_energy">   -454.33594834 </i>
    <i name="e_wo_entrp">   -454.33583866 </i>
    <i name="e_0_energy">   -454.33589350 </i>
   </energy>
  </scstep>
  <scstep>
   <time name="diag">    0.88    0.89</time>
   <time name="diis">    4.05    4.05</time>
   <time name="orth">    0.04    0.04</time>
   <time name="total">    5.54    5.55</time>
   <energy>
    <i name="e_fr_energy">   -454.33597503 </i>
    <i name="e_wo_entrp">   -454.33586402 </i>
    <i name="e_0_energy">   -454.33591953 </i>
   </energy>
  </scstep>
  <scstep>
   <time name="diag">    0.90    0.90</time>
   <time name="diis">    2.88    2.89</time>
   <time name="orth">    0.04    0.04</time>
   <time name="total">    4.00    4.01</time>
   <energy>
    <i name="alphaZ">     82.54348252 </i>
    <i name="ewald">  34516.61432078 </i>
    <i name="hartreedc"> -41034.99963732 </i>
    <i name="XCdc">    721.38593127 </i>
    <i name="pawpsdc">  22777.02823506 </i>
    <i name="pawaedc"> -22813.36076079 </i>
    <i name="eentropy">     -0.00011195 </i>
    <i name="bandstr">  -2492.17183163 </i>
    <i name="atom">   7788.62438962 </i>
    <i name="e_fr_energy">   -454.33598245 </i>
    <i name="e_wo_entrp">   -454.33587050 </i>
    <i name="e_0_energy">   -454.33592648 </i>
   </energy>
  </scstep>
  <structure>
   <crystal>
    <varray name="basis" >
     <v>      12.30000019       0.00000000       0.00000000 </v>
     <v>       6.15000080      10.65211222       0.00000000 </v>
     <v>       0.00000000       0.00000000      20.00000000 </v>
    </varray>
    <i name="volume">   2620.41964732 </i>
    <varray name="rec_basis" >
     <v>       0.08130081      -0.04693905       0.00000000 </v>
     <v>       0.00000000       0.09387809       0.00000000 </v>
     <v>       0.00000000       0.00000000       0.05000000 </v>
    </varray>
   </crystal>
   <varray name="positions" >
    <v>       0.00000000       0.00000000       0.41799748 </v>
    <v>       0.20000000       0.00000000       0.41799748 </v>
    <v>       0.40000000       0.00000000       0.41799748 </v>
    <v>       0.60000000       0.00000000       0.41799748 </v>
    <v>       0.80000000       0.00000000       0.41799748 </v>
    <v>       0.00000000       0.20000000       0.41799748 </v>
    <v>       0.20000000       0.20000000       0.41799748 </v>
    <v>       0.40000000       0.20000000       0.41799748 </v>
    <v>       0.60000000       0.20000000       0.41799748 </v>
    <v>       0.80000000       0.20000000       0.41799748 </v>
    <v>       0.00000000       0.40000000       0.41799748 </v>
    <v>       0.20000000       0.40000000       0.41799748 </v>
    <v>       0.40000000       0.40000000       0.41799748 </v>
    <v>       0.60000000       0.40000000       0.41799748 </v>
    <v>       0.80000000       0.40000000       0.41799748 </v>
    <v>       0.00000000       0.60000000       0.41799748 </v>
    <v>       0.20000000       0.60000000       0.41799748 </v>
    <v>       0.40000000       0.60000000       0.41799748 </v>
    <v>       0.60000000       0.60000000       0.41799748 </v>
    <v>       0.80000000       0.60000000       0.41799748 </v>
    <v>       0.00000000       0.80000000       0.41799748 </v>
    <v>       0.20000000       0.80000000       0.41799748 </v>
    <v>       0.40000000       0.80000000       0.41799748 </v>
    <v>       0.60000000       0.80000000       0.41799748 </v>
    <v>       0.80000000       0.80000000       0.41799748 </v>
    <v>       0.06666667       0.06666660       0.41800609 </v>
    <v>       0.26666667       0.06747961       0.41800609 </v>
    <v>       0.46666667       0.06666660       0.41800609 </v>
    <v>       0.66666667       0.06666660       0.41800609 </v>
    <v>       0.86666667       0.06666660       0.41800609 </v>
    <v>       0.06666667       0.26666660       0.41800609 </v>
    <v>       0.26666667       0.26666660       0.41800609 </v>
    <v>       0.46666667       0.26666660       0.41800609 </v>
    <v>       0.66666667       0.26666660       0.41800609 </v>
    <v>       0.86666667       0.26666660       0.41800609 </v>
    <v>       0.06666667       0.46666660       0.41800609 </v>
    <v>       0.26666667       0.46666660       0.41800609 </v>
    <v>       0.46666667       0.46666660       0.41800609 </v>
    <v>       0.66666667       0.46666660       0.41800609 </v>
    <v>       0.86666667       0.46666660       0.41800609 </v>
    <v>       0.06666667       0.66666660       0.41800609 </v>
    <v>       0.26666667       0.66666660       0.41800609 </v>
    <v>       0.46666667       0.66666660       0.41800609 </v>
    <v>       0.66666667       0.66666660       0.41800609 </v>
    <v>       0.86666667       0.66666660       0.41800609 </v>
    <v>       0.06666667       0.86666660       0.41800609 </v>
    <v>       0.26666667       0.86666660       0.41800609 </v>
    <v>       0.46666667       0.86666660       0.41800609 </v>
    <v>       0.66666667       0.86666660       0.41800609 </v>
    <v>       0.86666667       0.86666660       0.41800609 </v>
    <v>       0.40000000       0.40000000       0.46800609 </v>
   </varray>
  </structure>
  <varray name="forces" >
   <v>      -0.05752510      -0.03117201       0.00941079 </v>
   <v>       0.20961863       0.12957664       0.00933202 </v>
   <v>      -0.10723528       0.10747495      -0.02595786 </v>
   <v>       0.00509227      -0.20387713      -0.02699576 </v>
   <v>       0.15920130       0.01409849      -0.02616217 </v>
   <v>       0.00816528       0.07014679       0.00934489 </v>
   <v>       0.47539354       0.48325993       0.00025514 </v>
   <v>       0.07887616      -0.20097926       0.16532295 </v>
   <v>      -0.09730403      -0.20384222       0.16525263 </v>
   <v>      -0.43142223       0.25094678       0.00001854 </v>
   <v>      -0.06629016      -0.15240115      -0.02589515 </v>
   <v>      -0.12626166       0.18081855       0.16525018 </v>
   <v>       0.00468886       0.00332641     -48.16276506 </v>
   <v>       0.13036355       0.18601641       0.16499411 </v>
   <v>       0.06825506      -0.14503689      -0.02612794 </v>
   <v>      -0.18108965       0.10184438      -0.02699743 </v>
   <v>      -0.22419734       0.02371717       0.16524763 </v>
   <v>       0.22474692       0.01530313       0.16460087 </v>
   <v>       0.18079059       0.10370448      -0.02696825 </v>
   <v>       0.00008424      -0.01286941       0.01781872 </v>
   <v>       0.08870061       0.12990712      -0.02619284 </v>
   <v>      -0.00642576      -0.49327061       0.00006098 </v>
   <v>      -0.08211782       0.12258957      -0.02589844 </v>
   <v>      -0.01220998       0.01230701       0.01785209 </v>
   <v>       0.00867483       0.00561518       0.01782537 </v>
   <v>       0.02783659      -0.02376687      -0.00606072 </v>
   <v>      -0.21020642      -0.77266389       0.01015939 </v>
   <v>       0.21541656       0.22857852       0.25660808 </v>
   <v>      -0.19426250       0.24833107       0.25724682 </v>
   <v>      -0.09463612      -0.22138924       0.01011781 </v>
   <v>      -0.17059247       0.20131986       0.01002911 </v>
   <v>      -0.41113849      -0.21614441      -0.35584304 </v>
   <v>       0.00596066      -5.07127817      -4.34613747 </v>
   <v>       0.44481749      -0.25629431      -0.35526145 </v>
   <v>       0.14085805       0.19327495       0.01010459 </v>
   <v>       0.31527341       0.04583043       0.25725913 </v>
   <v>      -4.39422974       2.53610377      -4.34767862 </v>
   <v>       4.39755707       2.54184755      -4.35143881 </v>
   <v>      -0.31469736       0.04297899       0.25699046 </v>
   <v>      -0.00197567       0.08247466      -0.02210684 </v>
   <v>       0.12079545      -0.29272107       0.25703225 </v>
   <v>      -0.00124609       0.51105716      -0.35542333 </v>
   <v>      -0.11837071      -0.28824704       0.25731845 </v>
   <v>      -0.08372054      -0.04793866      -0.02649952 </v>
   <v>       0.08209334      -0.04680773      -0.02642370 </v>
   <v>      -0.23416853       0.02769218       0.01004511 </v>
   <v>       0.25677606       0.06570240       0.01014490 </v>
   <v>       0.04238278      -0.03456100      -0.02193098 </v>
   <v>       0.00290531       0.09554071      -0.02641818 </v>
   <v>      -0.06881212      -0.04097106      -0.02206331 </v>
   <v>      -0.00518885      -0.00515314      59.98760385 </v>
  </varray>
  <varray name="stress" >
   <v>       9.44168113      -0.02677602      -0.00325825 </v>
   <v>      -0.02677602       9.58095239      -0.00319096 </v>
   <v>      -0.00325825      -0.00319096      31.89733938 </v>
  </varray>
  <energy>
   <i name="e_fr_energy">   -454.33598245 </i>
   <i name="e_wo_entrp">   -454.33592648 </i>
   <i name="e_0_energy">     -0.00011195 </i>
  </energy>
  <time name="totalsc">   42.37   42.46</time>
  <eigenvalues>
   <array>
    <dimension dim="1">band</dimension>
    <dimension dim="2">kpoint</dimension>
    <dimension dim="3">spin</dimension>
    <field>eigene</field>
    <field>occ</field>
    <set>
     <set comment="spin 1">
      <set comment="kpoint 1">
       <r>  -31.7390    1.0000 </r>
       <r>  -22.2705    1.0000 </r>
       <r>  -21.5073    1.0000 </r>
       <r>  -21.5023    1.0000 </r>
       <r>  -21.3947    1.0000 </r>
       <r>  -21.3938    1.0000 </r>
       <r>  -21.3902    1.0000 </r>
       <r>  -20.8730    1.0000 </r>
       <r>  -19.8791    1.0000 </r>
       <r>  -19.8754    1.0000 </r>
       <r>  -19.5527    1.0000 </r>
       <r>  -19.5451    1.0000 </r>
       <r>  -19.5399    1.0000 </r>
       <r>  -19.1899    1.0000 </r>
       <r>  -18.9012    1.0000 </r>
       <r>  -18.8940    1.0000 </r>
       <r>  -18.6493    1.0000 </r>
       <r>  -18.6436    1.0000 </r>
       <r>  -18.6417    1.0000 </r>
       <r>  -17.8854    1.0000 </r>
       <r>  -17.0213    1.0000 </r>
       <r>  -17.0192    1.0000 </r>
       <r>  -16.4780    1.0000 </r>
       <r>  -16.4617    1.0000 </r>
       <r>  -16.4522    1.0000 </r>
       <r>  -16.0484    1.0000 </r>
       <r>  -15.9964    1.0000 </r>
       <r>  -15.9951    1.0000 </r>
       <r>  -15.5019    1.0000 </r>
       <r>  -15.4983    1.0000 </r>
       <r>  -15.4917    1.0000 </r>
       <r>  -15.0902    1.0000 </r>
       <r>  -14.6310    1.0000 </r>
       <r>  -14.6267    1.0000 </r>
       <r>  -14.1505    1.0000 </r>
       <r>  -14.1487    1.0000 </r>
       <r>  -14.1403    1.0000 </r>
       <r>  -13.9639    1.0000 </r>
       <r>  -12.9926    1.0000 </r>
       <r>  -12.9906    1.0000 </r>
       <r>  -12.0282    1.0000 </r>
       <r>  -11.7707    1.0000 </r>
       <r>  -11.7652    1.0000 </r>
       <r>  -11.7600    1.0000 </r>
       <r>  -11.6929    1.0000 </r>
       <r>  -11.6890    1.0000 </r>
       <r>  -11.6517    1.0000 </r>
       <r>  -11.6502    1.0000 </r>
       <r>  -11.6476    1.0000 </r>
       <r>  -11.6418    1.0000 </r>
       <r>  -10.8075    1.0000 </r>
       <r>  -10.8011    1.0000 </r>
       <r>  -10.4292    1.0000 </r>
       <r>  -10.3340    1.0000 </r>
       <r>  -10.2881    1.0000 </r>
       <r>  -10.2818    1.0000 </r>
       <r>  -10.2741    1.0000 </r>
       <r>  -10.0788    1.0000 </r>
       <r>   -9.6852    1.0000 </r>
       <r>   -9.6819    1.0000 </r>
       <r>   -9.3293    1.0000 </r>
       <r>   -9.3239    1.0000 </r>
       <r>   -9.2987    1.0000 </r>
       <r>   -9.2793    1.0000 </r>
       <r>   -9.2786    1.0000 </r>
       <r>   -9.0445    1.0000 </r>
       <r>   -9.0036    1.0000 </r>
       <r>   -9.0006    1.0000 </r>
       <r>   -8.9565    1.0000 </r>
       <r>   -8.9450    1.0000 </r>
       <r>   -8.9399    1.0000 </r>
       <r>   -8.9333    1.0000 </r>
       <r>   -8.9193    1.0000 </r>
       <r>   -8.9182    1.0000 </r>
       <r>   -8.8934    1.0000 </r>
       <r>   -8.4358    1.0000 </r>
       <r>   -7.8057    1.0000 </r>
       <r>   -7.7992    1.0000 </r>
       <r>   -7.3249    1.0000 </r>
       <r>   -7.3208    1.0000 </r>
       <r>   -7.3171    1.0000 </r>
       <r>   -7.3011    1.0000 </r>
       <r>   -7.2989    1.0000 </r>
       <r>   -7.2937    1.0000 </r>
       <r>   -7.1631    1.0000 </r>
       <r>   -7.1574    1.0000 </r>
       <r>   -7.1546    1.0000 </r>
       <r>   -6.7511    1.0000 </r>
       <r>   -6.5072    1.0000 </r>
       <r>   -6.5021    1.0000 </r>
       <r>   -6.2697    1.0000 </r>
       <r>   -6.2485    1.0000 </r>
       <r>   -6.2466    1.0000 </r>
       <r>   -5.9280    1.0000 </r>
       <r>   -5.9159    1.0000 </r>
       <r>   -5.1980    1.0000 </r>
       <r>   -4.7641    1.0000 </r>
       <r>   -4.7617    1.0000 </r>
       <r>   -4.2728    1.0000 </r>
       <r>   -4.2671    1.0000 </r>
       <r>   -4.2613    1.0000 </r>
       <r>   -3.2143    1.0000 </r>
       <r>   -3.2140    1.0000 </r>
       <r>   -2.9152    0.0021 </r>
       <r>   -1.4665    0.0000 </r>
       <r>   -1.4572    0.0000 </r>
       <r>   -1.4551    0.0000 </r>
       <r>   -0.9933    0.0000 </r>
       <r>   -0.9893    0.0000 </r>
       <r>   -0.5413    0.0000 </r>
       <r>    0.4156    0.0000 </r>
       <r>    0.4210    0.0000 </r>
       <r>    0.4292    0.0000 </r>
       <r>    0.5619    0.0000 </r>
       <r>    0.8404    0.0000 </r>
       <r>    0.8447    0.0000 </r>
       <r>    1.2934    0.0000 </r>
       <r>    1.3399    0.0000 </r>
       <r>    1.6810    0.0000 </r>
       <r>    1.8009    0.0000 </r>
       <r>    1.8027    0.0000 </r>
       <r>    1.8041    0.0000 </r>
       <r>    1.8257    0.0000 </r>
       <r>    1.8262    0.0000 </r>
       <r>    2.0308    0.0000 </r>
       <r>    2.1719    0.0000 </r>
       <r>    2.1784    0.0000 </r>
       <r>    2.1809    0.0000 </r>
       <r>    2.3468    0.0000 </r>
       <r>    2.3506    0.0000 </r>
       <r>    2.6379    0.0000 </r>
       <r>    2.6428    0.0000 </r>
      </set>
      <set comment="kpoint 2">
       <r>  -31.7391    1.0000 </r>
       <r>  -22.1884    1.0000 </r>
       <r>  -21.8684    1.0000 </r>
       <r>  -21.6635    1.0000 </r>
       <r>  -21.4534    1.0000 </r>
       <r>  -21.0361    1.0000 </r>
       <r>  -20.8943    1.0000 </r>
       <r>  -20.7270    1.0000 </r>
       <r>  -20.4221    1.0000 </r>
       <r>  -20.1587    1.0000 </r>
       <r>  -19.7862    1.0000 </r>
       <r>  -19.7021    1.0000 </r>
       <r>  -19.3257    1.0000 </r>
       <r>  -19.2438    1.0000 </r>
       <r>  -19.0614    1.0000 </r>
       <r>  -18.5940    1.0000 </r>
       <r>  -18.4542    1.0000 </r>
       <r>  -18.1234    1.0000 </r>
       <r>  -18.0605    1.0000 </r>
       <r>  -17.5926    1.0000 </r>
       <r>  -17.4981    1.0000 </r>
       <r>  -17.2948    1.0000 </r>
       <r>  -17.2796    1.0000 </r>
       <r>  -16.8520    1.0000 </r>
       <r>  -16.6572    1.0000 </r>
       <r>  -16.1772    1.0000 </r>
       <r>  -15.9775    1.0000 </r>
       <r>  -15.8472    1.0000 </r>
       <r>  -15.2988    1.0000 </r>
       <r>  -15.1692    1.0000 </r>
       <r>  -15.1335    1.0000 </r>
       <r>  -14.8863    1.0000 </r>
       <r>  -14.7793    1.0000 </r>
       <r>  -14.4777    1.0000 </r>
       <r>  -14.4569    1.0000 </r>
       <r>  -13.7670    1.0000 </r>
       <r>  -13.7579    1.0000 </r>
       <r>  -13.1967    1.0000 </r>
       <r>  -13.0905    1.0000 </r>
       <r>  -12.9335    1.0000 </r>
       <r>  -12.9012    1.0000 </r>
       <r>  -12.5848    1.0000 </r>
       <r>  -12.5496    1.0000 </r>
       <r>  -12.3921    1.0000 </r>
       <r>  -12.0237    1.0000 </r>
       <r>  -11.6620    1.0000 </r>
       <r>  -11.4486    1.0000 </r>
       <r>  -11.2960    1.0000 </r>
       <r>  -11.1212    1.0000 </r>
       <r>  -10.9134    1.0000 </r>
       <r>  -10.8477    1.0000 </r>
       <r>  -10.5823    1.0000 </r>
       <r>  -10.5305    1.0000 </r>
       <r>  -10.2863    1.0000 </r>
       <r>  -10.2366    1.0000 </r>
       <r>  -10.1649    1.0000 </r>
       <r>  -10.0490    1.0000 </r>
       <r>   -9.8528    1.0000 </r>
       <r>   -9.8161    1.0000 </r>
       <r>   -9.6526    1.0000 </r>
       <r>   -9.6088    1.0000 </r>
       <r>   -9.5601    1.0000 </r>
       <r>   -9.5272    1.0000 </r>
       <r>   -9.3765    1.0000 </r>
       <r>   -9.3402    1.0000 </r>
       <r>   -9.2599    1.0000 </r>
       <r>   -9.1752    1.0000 </r>
       <r>   -9.0989    1.0000 </r>
       <r>   -9.0799    1.0000 </r>
       <r>   -8.8656    1.0000 </r>
       <r>   -8.7124    1.0000 </r>
       <r>   -8.6620    1.0000 </r>
       <r>   -8.5042    1.0000 </r>
       <r>   -8.4036    1.0000 </r>
       <r>   -8.2862    1.0000 </r>
       <r>   -8.1342    1.0000 </r>
       <r>   -8.0950    1.0000 </r>
       <r>   -8.0658    1.0000 </r>
       <r>   -7.9696    1.0000 </r>
       <r>   -7.8051    1.0000 </r>
       <r>   -7.6198    1.0000 </r>
       <r>   -7.3601    1.0000 </r>
       <r>   -7.3395    1.0000 </r>
       <r>   -7.2652    1.0000 </r>
       <r>   -7.1964    1.0000 </r>
       <r>   -6.9198    1.0000 </r>
       <r>   -6.8735    1.0000 </r>
       <r>   -6.6926    1.0000 </r>
       <r>   -6.5910    1.0000 </r>
       <r>   -6.3480    1.0000 </r>
       <r>   -6.1848    1.0000 </r>
       <r>   -6.0742    1.0000 </r>
       <r>   -5.9184    1.0000 </r>
       <r>   -5.7408    1.0000 </r>
       <r>   -5.6392    1.0000 </r>
       <r>   -5.3250    1.0000 </r>
       <r>   -5.1149    1.0000 </r>
       <r>   -4.9662    1.0000 </r>
       <r>   -4.9247    1.0000 </r>
       <r>   -4.2701    1.0000 </r>
       <r>   -4.1676    1.0000 </r>
       <r>   -3.3358    1.0000 </r>
       <r>   -3.1364    0.9997 </r>
       <r>   -2.8037    0.0000 </r>
       <r>   -1.5935    0.0000 </r>
       <r>   -1.4231    0.0000 </r>
       <r>   -0.8435    0.0000 </r>
       <r>   -0.8166    0.0000 </r>
       <r>   -0.7041    0.0000 </r>
       <r>   -0.6675    0.0000 </r>
       <r>   -0.1277    0.0000 </r>
       <r>   -0.0037    0.0000 </r>
       <r>    0.2900    0.0000 </r>
       <r>    0.7042    0.0000 </r>
       <r>    0.7272    0.0000 </r>
       <r>    1.0994    0.0000 </r>
       <r>    1.1753    0.0000 </r>
       <r>    1.3671    0.0000 </r>
       <r>    1.4624    0.0000 </r>
       <r>    1.5368    0.0000 </r>
       <r>    1.5701    0.0000 </r>
       <r>    1.6367    0.0000 </r>
       <r>    1.8306    0.0000 </r>
       <r>    1.9118    0.0000 </r>
       <r>    2.0404    0.0000 </r>
       <r>    2.2216    0.0000 </r>
       <r>    2.2713    0.0000 </r>
       <r>    2.3293    0.0000 </r>
       <r>    2.3385    0.0000 </r>
       <r>    2.3947    0.0000 </r>
       <r>    2.4578    0.0000 </r>
       <r>    2.7950    0.0000 </r>
      </set>
      <set comment="kpoint 3">
       <r>  -31.7391    1.0000 </r>
       <r>  -22.1882    1.0000 </r>
       <r>  -21.8697    1.0000 </r>
       <r>  -21.6622    1.0000 </r>
       <r>  -21.4536    1.0000 </r>
       <r>  -21.0344    1.0000 </r>
       <r>  -20.8962    1.0000 </r>
       <r>  -20.7263    1.0000 </r>
       <r>  -20.4215    1.0000 </r>
       <r>  -20.1624    1.0000 </r>
       <r>  -19.7858    1.0000 </r>
       <r>  -19.6992    1.0000 </r>
       <r>  -19.3282    1.0000 </r>
       <r>  -19.2395    1.0000 </r>
       <r>  -19.0634    1.0000 </r>
       <r>  -18.5927    1.0000 </r>
       <r>  -18.4569    1.0000 </r>
       <r>  -18.1200    1.0000 </r>
       <r>  -18.0629    1.0000 </r>
       <r>  -17.5919    1.0000 </r>
       <r>  -17.4985    1.0000 </r>
       <r>  -17.3009    1.0000 </r>
       <r>  -17.2749    1.0000 </r>
       <r>  -16.8509    1.0000 </r>
       <r>  -16.6588    1.0000 </r>
       <r>  -16.1755    1.0000 </r>
       <r>  -15.9780    1.0000 </r>
       <r>  -15.8465    1.0000 </r>
       <r>  -15.2993    1.0000 </r>
       <r>  -15.1691    1.0000 </r>
       <r>  -15.1336    1.0000 </r>
       <r>  -14.8818    1.0000 </r>
       <r>  -14.7820    1.0000 </r>
       <r>  -14.4756    1.0000 </r>
       <r>  -14.4602    1.0000 </r>
       <r>  -13.7654    1.0000 </r>
       <r>  -13.7597    1.0000 </r>
       <r>  -13.1957    1.0000 </r>
       <r>  -13.0911    1.0000 </r>
       <r>  -12.9353    1.0000 </r>
       <r>  -12.9043    1.0000 </r>
       <r>  -12.5837    1.0000 </r>
       <r>  -12.5524    1.0000 </r>
       <r>  -12.3884    1.0000 </r>
       <r>  -12.0231    1.0000 </r>
       <r>  -11.6610    1.0000 </r>
       <r>  -11.4440    1.0000 </r>
       <r>  -11.2932    1.0000 </r>
       <r>  -11.1208    1.0000 </r>
       <r>  -10.9142    1.0000 </r>
       <r>  -10.8520    1.0000 </r>
       <r>  -10.5839    1.0000 </r>
       <r>  -10.5321    1.0000 </r>
       <r>  -10.2864    1.0000 </r>
       <r>  -10.2364    1.0000 </r>
       <r>  -10.1603    1.0000 </r>
       <r>  -10.0519    1.0000 </r>
       <r>   -9.8535    1.0000 </r>
       <r>   -9.8219    1.0000 </r>
       <r>   -9.6535    1.0000 </r>
       <r>   -9.6083    1.0000 </r>
       <r>   -9.5593    1.0000 </r>
       <r>   -9.5276    1.0000 </r>
       <r>   -9.3716    1.0000 </r>
       <r>   -9.3405    1.0000 </r>
       <r>   -9.2622    1.0000 </r>
       <r>   -9.1757    1.0000 </r>
       <r>   -9.1005    1.0000 </r>
       <r>   -9.0783    1.0000 </r>
       <r>   -8.8639    1.0000 </r>
       <r>   -8.7086    1.0000 </r>
       <r>   -8.6638    1.0000 </r>
       <r>   -8.5032    1.0000 </r>
       <r>   -8.4021    1.0000 </r>
       <r>   -8.2841    1.0000 </r>
       <r>   -8.1343    1.0000 </r>
       <r>   -8.0910    1.0000 </r>
       <r>   -8.0667    1.0000 </r>
       <r>   -7.9701    1.0000 </r>
       <r>   -7.8082    1.0000 </r>
       <r>   -7.6199    1.0000 </r>
       <r>   -7.3604    1.0000 </r>
       <r>   -7.3398    1.0000 </r>
       <r>   -7.2677    1.0000 </r>
       <r>   -7.1997    1.0000 </r>
       <r>   -6.9227    1.0000 </r>
       <r>   -6.8703    1.0000 </r>
       <r>   -6.6894    1.0000 </r>
       <r>   -6.5936    1.0000 </r>
       <r>   -6.3530    1.0000 </r>
       <r>   -6.1800    1.0000 </r>
       <r>   -6.0711    1.0000 </r>
       <r>   -5.9214    1.0000 </r>
       <r>   -5.7388    1.0000 </r>
       <r>   -5.6403    1.0000 </r>
       <r>   -5.3228    1.0000 </r>
       <r>   -5.1149    1.0000 </r>
       <r>   -4.9694    1.0000 </r>
       <r>   -4.9206    1.0000 </r>
       <r>   -4.2701    1.0000 </r>
       <r>   -4.1700    1.0000 </r>
       <r>   -3.3362    1.0000 </r>
       <r>   -3.1371    0.9997 </r>
       <r>   -2.8033    0.0000 </r>
       <r>   -1.5871    0.0000 </r>
       <r>   -1.4238    0.0000 </r>
       <r>   -0.8428    0.0000 </r>
       <r>   -0.8218    0.0000 </r>
       <r>   -0.7053    0.0000 </r>
       <r>   -0.6685    0.0000 </r>
       <r>   -0.1281    0.0000 </r>
       <r>   -0.0054    0.0000 </r>
       <r>    0.2949    0.0000 </r>
       <r>    0.7044    0.0000 </r>
       <r>    0.7245    0.0000 </r>
       <r>    1.1002    0.0000 </r>
       <r>    1.1772    0.0000 </r>
       <r>    1.3643    0.0000 </r>
       <r>    1.4633    0.0000 </r>
       <r>    1.5369    0.0000 </r>
       <r>    1.5730    0.0000 </r>
       <r>    1.6397    0.0000 </r>
       <r>    1.8315    0.0000 </r>
       <r>    1.9128    0.0000 </r>
       <r>    2.0406    0.0000 </r>
       <r>    2.2253    0.0000 </r>
       <r>    2.2743    0.0000 </r>
       <r>    2.3356    0.0000 </r>
       <r>    2.4266    0.0000 </r>
       <r>    2.7398    0.0000 </r>
       <r>    3.2540    0.0000 </r>
       <r>    3.6142    0.0000 </r>
      </set>
      <set comment="kpoint 4">
       <r>  -31.7391    1.0000 </r>
       <r>  -22.1884    1.0000 </r>
       <r>  -21.8692    1.0000 </r>
       <r>  -21.6601    1.0000 </r>
       <r>  -21.4573    1.0000 </r>
       <r>  -21.0331    1.0000 </r>
       <r>  -20.8973    1.0000 </r>
       <r>  -20.7255    1.0000 </r>
       <r>  -20.4191    1.0000 </r>
       <r>  -20.1636    1.0000 </r>
       <r>  -19.7878    1.0000 </r>
       <r>  -19.6986    1.0000 </r>
       <r>  -19.3289    1.0000 </r>
       <r>  -19.2402    1.0000 </r>
       <r>  -19.0608    1.0000 </r>
       <r>  -18.5914    1.0000 </r>
       <r>  -18.4593    1.0000 </r>
       <r>  -18.1208    1.0000 </r>
       <r>  -18.0641    1.0000 </r>
       <r>  -17.5919    1.0000 </r>
       <r>  -17.4959    1.0000 </r>
       <r>  -17.3013    1.0000 </r>
       <r>  -17.2732    1.0000 </r>
       <r>  -16.8515    1.0000 </r>
       <r>  -16.6584    1.0000 </r>
       <r>  -16.1750    1.0000 </r>
       <r>  -15.9796    1.0000 </r>
       <r>  -15.8454    1.0000 </r>
       <r>  -15.2990    1.0000 </r>
       <r>  -15.1698    1.0000 </r>
       <r>  -15.1354    1.0000 </r>
       <r>  -14.8876    1.0000 </r>
       <r>  -14.7823    1.0000 </r>
       <r>  -14.4756    1.0000 </r>
       <r>  -14.4542    1.0000 </r>
       <r>  -13.7665    1.0000 </r>
       <r>  -13.7589    1.0000 </r>
       <r>  -13.1965    1.0000 </r>
       <r>  -13.0865    1.0000 </r>
       <r>  -12.9355    1.0000 </r>
       <r>  -12.9031    1.0000 </r>
       <r>  -12.5837    1.0000 </r>
       <r>  -12.5495    1.0000 </r>
       <r>  -12.3913    1.0000 </r>
       <r>  -12.0220    1.0000 </r>
       <r>  -11.6617    1.0000 </r>
       <r>  -11.4481    1.0000 </r>
       <r>  -11.2996    1.0000 </r>
       <r>  -11.1238    1.0000 </r>
       <r>  -10.9133    1.0000 </r>
       <r>  -10.8522    1.0000 </r>
       <r>  -10.5826    1.0000 </r>
       <r>  -10.5320    1.0000 </r>
       <r>  -10.2827    1.0000 </r>
       <r>  -10.2366    1.0000 </r>
       <r>  -10.1580    1.0000 </r>
       <r>  -10.0493    1.0000 </r>
       <r>   -9.8533    1.0000 </r>
       <r>   -9.8171    1.0000 </r>
       <r>   -9.6536    1.0000 </r>
       <r>   -9.6069    1.0000 </r>
       <r>   -9.5618    1.0000 </r>
       <r>   -9.5254    1.0000 </r>
       <r>   -9.3699    1.0000 </r>
       <r>   -9.3419    1.0000 </r>
       <r>   -9.2594    1.0000 </r>
       <r>   -9.1732    1.0000 </r>
       <r>   -9.1014    1.0000 </r>
       <r>   -9.0824    1.0000 </r>
       <r>   -8.8636    1.0000 </r>
       <r>   -8.7132    1.0000 </r>
       <r>   -8.6654    1.0000 </r>
       <r>   -8.5035    1.0000 </r>
       <r>   -8.4070    1.0000 </r>
       <r>   -8.2875    1.0000 </r>
       <r>   -8.1343    1.0000 </r>
       <r>   -8.0963    1.0000 </r>
       <r>   -8.0676    1.0000 </r>
       <r>   -7.9716    1.0000 </r>
       <r>   -7.8089    1.0000 </r>
       <r>   -7.6156    1.0000 </r>
       <r>   -7.3594    1.0000 </r>
       <r>   -7.3355    1.0000 </r>
       <r>   -7.2627    1.0000 </r>
       <r>   -7.1946    1.0000 </r>
       <r>   -6.9225    1.0000 </r>
       <r>   -6.8692    1.0000 </r>
       <r>   -6.6942    1.0000 </r>
       <r>   -6.5894    1.0000 </r>
       <r>   -6.3436    1.0000 </r>
       <r>   -6.1895    1.0000 </r>
       <r>   -6.0745    1.0000 </r>
       <r>   -5.9221    1.0000 </r>
       <r>   -5.7380    1.0000 </r>
       <r>   -5.6430    1.0000 </r>
       <r>   -5.3256    1.0000 </r>
       <r>   -5.1125    1.0000 </r>
       <r>   -4.9715    1.0000 </r>
       <r>   -4.9216    1.0000 </r>
       <r>   -4.2685    1.0000 </r>
       <r>   -4.1670    1.0000 </r>
       <r>   -3.3360    1.0000 </r>
       <r>   -3.1355    0.9996 </r>
       <r>   -2.8039    0.0000 </r>
       <r>   -1.5947    0.0000 </r>
       <r>   -1.4266    0.0000 </r>
       <r>   -0.8365    0.0000 </r>
       <r>   -0.8205    0.0000 </r>
       <r>   -0.7038    0.0000 </r>
       <r>   -0.6678    0.0000 </r>
       <r>   -0.1244    0.0000 </r>
       <r>   -0.0074    0.0000 </r>
       <r>    0.2943    0.0000 </r>
       <r>    0.7045    0.0000 </r>
       <r>    0.7282    0.0000 </r>
       <r>    1.0995    0.0000 </r>
       <r>    1.1755    0.0000 </r>
       <r>    1.3622    0.0000 </r>
       <r>    1.4643    0.0000 </r>
       <r>    1.5612    0.0000 </r>
       <r>    1.5792    0.0000 </r>
       <r>    1.7514    0.0000 </r>
       <r>    1.8319    0.0000 </r>
       <r>    2.1785    0.0000 </r>
       <r>    2.3357    0.0000 </r>
       <r>    2.3968    0.0000 </r>
       <r>    2.6165    0.0000 </r>
       <r>    2.7879    0.0000 </r>
       <r>    2.8476    0.0000 </r>
       <r>    3.2036    0.0000 </r>
       <r>    3.5941    0.0000 </r>
       <r>    4.1734    0.0000 </r>
      </set>
      <set comment="kpoint 5">
       <r>  -31.7391    1.0000 </r>
       <r>  -22.0793    1.0000 </r>
       <r>  -22.0075    1.0000 </r>
       <r>  -21.8026    1.0000 </r>
       <r>  -21.1704    1.0000 </r>
       <r>  -21.1529    1.0000 </r>
       <r>  -20.8655    1.0000 </r>
       <r>  -20.4119    1.0000 </r>
       <r>  -20.3391    1.0000 </r>
       <r>  -20.1711    1.0000 </r>
       <r>  -20.1521    1.0000 </r>
       <r>  -20.1417    1.0000 </r>
       <r>  -19.5679    1.0000 </r>
       <r>  -18.8282    1.0000 </r>
       <r>  -18.6731    1.0000 </r>
       <r>  -18.3745    1.0000 </r>
       <r>  -18.3452    1.0000 </r>
       <r>  -18.3360    1.0000 </r>
       <r>  -17.9291    1.0000 </r>
       <r>  -17.8008    1.0000 </r>
       <r>  -17.6022    1.0000 </r>
       <r>  -17.2612    1.0000 </r>
       <r>  -17.1501    1.0000 </r>
       <r>  -17.1238    1.0000 </r>
       <r>  -16.5424    1.0000 </r>
       <r>  -16.4363    1.0000 </r>
       <r>  -16.2846    1.0000 </r>
       <r>  -15.8092    1.0000 </r>
       <r>  -15.6295    1.0000 </r>
       <r>  -15.1742    1.0000 </r>
       <r>  -14.9701    1.0000 </r>
       <r>  -14.6497    1.0000 </r>
       <r>  -13.9600    1.0000 </r>
       <r>  -13.9417    1.0000 </r>
       <r>  -13.9234    1.0000 </r>
       <r>  -13.8744    1.0000 </r>
       <r>  -13.8640    1.0000 </r>
       <r>  -13.7912    1.0000 </r>
       <r>  -13.6740    1.0000 </r>
       <r>  -13.4935    1.0000 </r>
       <r>  -13.0380    1.0000 </r>
       <r>  -12.4734    1.0000 </r>
       <r>  -12.2528    1.0000 </r>
       <r>  -12.0732    1.0000 </r>
       <r>  -11.8272    1.0000 </r>
       <r>  -11.7716    1.0000 </r>
       <r>  -11.5588    1.0000 </r>
       <r>  -11.5473    1.0000 </r>
       <r>  -11.5219    1.0000 </r>
       <r>  -10.9281    1.0000 </r>
       <r>  -10.8172    1.0000 </r>
       <r>  -10.5300    1.0000 </r>
       <r>  -10.2100    1.0000 </r>
       <r>  -10.2023    1.0000 </r>
       <r>  -10.1897    1.0000 </r>
       <r>  -10.0939    1.0000 </r>
       <r>  -10.0535    1.0000 </r>
       <r>  -10.0220    1.0000 </r>
       <r>   -9.9022    1.0000 </r>
       <r>   -9.7533    1.0000 </r>
       <r>   -9.7489    1.0000 </r>
       <r>   -9.5633    1.0000 </r>
       <r>   -9.4388    1.0000 </r>
       <r>   -9.4050    1.0000 </r>
       <r>   -9.2019    1.0000 </r>
       <r>   -9.0478    1.0000 </r>
       <r>   -9.0319    1.0000 </r>
       <r>   -8.9036    1.0000 </r>
       <r>   -8.8846    1.0000 </r>
       <r>   -8.6872    1.0000 </r>
       <r>   -8.6400    1.0000 </r>
       <r>   -8.6360    1.0000 </r>
       <r>   -8.6208    1.0000 </r>
       <r>   -8.5815    1.0000 </r>
       <r>   -8.3720    1.0000 </r>
       <r>   -8.2546    1.0000 </r>
       <r>   -8.1602    1.0000 </r>
       <r>   -8.0344    1.0000 </r>
       <r>   -7.9845    1.0000 </r>
       <r>   -7.8789    1.0000 </r>
       <r>   -7.8594    1.0000 </r>
       <r>   -7.8532    1.0000 </r>
       <r>   -7.2277    1.0000 </r>
       <r>   -7.1837    1.0000 </r>
       <r>   -7.1275    1.0000 </r>
       <r>   -6.8845    1.0000 </r>
       <r>   -6.7229    1.0000 </r>
       <r>   -6.6087    1.0000 </r>
       <r>   -6.4607    1.0000 </r>
       <r>   -6.2689    1.0000 </r>
       <r>   -6.1013    1.0000 </r>
       <r>   -5.9193    1.0000 </r>
       <r>   -5.9081    1.0000 </r>
       <r>   -5.8978    1.0000 </r>
       <r>   -5.4518    1.0000 </r>
       <r>   -5.4243    1.0000 </r>
       <r>   -5.1244    1.0000 </r>
       <r>   -5.0114    1.0000 </r>
       <r>   -4.9811    1.0000 </r>
       <r>   -4.9576    1.0000 </r>
       <r>   -3.7323    1.0000 </r>
       <r>   -3.4571    1.0000 </r>
       <r>   -3.2796    1.0000 </r>
       <r>   -2.3873    0.0000 </r>
       <r>   -2.2251    0.0000 </r>
       <r>   -0.9313    0.0000 </r>
       <r>   -0.8773    0.0000 </r>
       <r>   -0.8684    0.0000 </r>
       <r>   -0.5381    0.0000 </r>
       <r>   -0.2647    0.0000 </r>
       <r>   -0.2110    0.0000 </r>
       <r>    0.2513    0.0000 </r>
       <r>    0.2549    0.0000 </r>
       <r>    0.2654    0.0000 </r>
       <r>    0.5993    0.0000 </r>
       <r>    0.7921    0.0000 </r>
       <r>    0.9486    0.0000 </r>
       <r>    0.9731    0.0000 </r>
       <r>    1.0605    0.0000 </r>
       <r>    1.7337    0.0000 </r>
       <r>    1.7470    0.0000 </r>
       <r>    1.7664    0.0000 </r>
       <r>    1.8265    0.0000 </r>
       <r>    2.1185    0.0000 </r>
       <r>    2.1237    0.0000 </r>
       <r>    2.1269    0.0000 </r>
       <r>    2.2453    0.0000 </r>
       <r>    2.2478    0.0000 </r>
       <r>    2.3616    0.0000 </r>
       <r>    2.9978    0.0000 </r>
       <r>    3.0105    0.0000 </r>
       <r>    3.0393    0.0000 </r>
      </set>
     </set>
    </set>
   </array>
  </eigenvalues>
  <separator name="orbital magnetization" >
   <v name="MAGDIPOLOUT">      0.00000000      0.00000000      0.00000000</v>
  </separator>
  <dos>
   <i name="efermi">     -3.01643237 </i>
   <total>
    <array>
     <dimension dim="1">gridpoints</dimension>
     <dimension dim="2">spin</dimension>
     <field>energy</field>
     <field>total</field>
     <field>integrated</field>
     <set>
      <set comment="spin 1">
       <r>   -33.5348     0.0000     0.0000 </r>
       <r>   -33.4031     0.0000     0.0000 </r>
       <r>   -33.2714     0.0000     0.0000 </r>
       <r>   -33.1397     0.0000     0.0000 </r>
       <r>   -33.0080     0.0000     0.0000 </r>
       <r>   -32.8764     0.0000     0.0000 </r>
       <r>   -32.7447     0.0000     0.0000 </r>
       <r>   -32.6130     0.0000     0.0000 </r>
       <r>   -32.4813     0.0000     0.0000 </r>
       <r>   -32.3496     0.0000     0.0000 </r>
       <r>   -32.2180     0.0000     0.0000 </r>
       <r>   -32.0863     0.0000     0.0000 </r>
       <r>   -31.9546     0.0000     0.0000 </r>
       <r>   -31.8229     0.1346     0.0177 </r>
       <r>   -31.6912    13.7169     1.8240 </r>
       <r>   -31.5596     1.3369     2.0000 </r>
       <r>   -31.4279     0.0000     2.0000 </r>
       <r>   -31.2962     0.0000     2.0000 </r>
       <r>   -31.1645     0.0000     2.0000 </r>
       <r>   -31.0328     0.0000     2.0000 </r>
       <r>   -30.9012     0.0000     2.0000 </r>
       <r>   -30.7695     0.0000     2.0000 </r>
       <r>   -30.6378     0.0000     2.0000 </r>
       <r>   -30.5061     0.0000     2.0000 </r>
       <r>   -30.3745     0.0000     2.0000 </r>
       <r>   -30.2428     0.0000     2.0000 </r>
       <r>   -30.1111     0.0000     2.0000 </r>
       <r>   -29.9794     0.0000     2.0000 </r>
       <r>   -29.8477     0.0000     2.0000 </r>
       <r>   -29.7161     0.0000     2.0000 </r>
       <r>   -29.5844     0.0000     2.0000 </r>
       <r>   -29.4527     0.0000     2.0000 </r>
       <r>   -29.3210     0.0000     2.0000 </r>
       <r>   -29.1893     0.0000     2.0000 </r>
       <r>   -29.0577     0.0000     2.0000 </r>
       <r>   -28.9260     0.0000     2.0000 </r>
       <r>   -28.7943     0.0000     2.0000 </r>
       <r>   -28.6626     0.0000     2.0000 </r>
       <r>   -28.5309     0.0000     2.0000 </r>
       <r>   -28.3993     0.0000     2.0000 </r>
       <r>   -28.2676     0.0000     2.0000 </r>
       <r>   -28.1359     0.0000     2.0000 </r>
       <r>   -28.0042     0.0000     2.0000 </r>
       <r>   -27.8725     0.0000     2.0000 </r>
       <r>   -27.7409     0.0000     2.0000 </r>
       <r>   -27.6092     0.0000     2.0000 </r>
       <r>   -27.4775     0.0000     2.0000 </r>
       <r>   -27.3458     0.0000     2.0000 </r>
       <r>   -27.2142     0.0000     2.0000 </r>
       <r>   -27.0825     0.0000     2.0000 </r>
       <r>   -26.9508     0.0000     2.0000 </r>
       <r>   -26.8191     0.0000     2.0000 </r>
       <r>   -26.6874     0.0000     2.0000 </r>
       <r>   -26.5558     0.0000     2.0000 </r>
       <r>   -26.4241     0.0000     2.0000 </r>
       <r>   -26.2924     0.0000     2.0000 </r>
       <r>   -26.1607     0.0000     2.0000 </r>
       <r>   -26.0290     0.0000     2.0000 </r>
       <r>   -25.8974     0.0000     2.0000 </r>
       <r>   -25.7657     0.0000     2.0000 </r>
       <r>   -25.6340     0.0000     2.0000 </r>
       <r>   -25.5023     0.0000     2.0000 </r>
       <r>   -25.3706     0.0000     2.0000 </r>
       <r>   -25.2390     0.0000     2.0000 </r>
       <r>   -25.1073     0.0000     2.0000 </r>
       <r>   -24.9756     0.0000     2.0000 </r>
       <r>   -24.8439     0.0000     2.0000 </r>
       <r>   -24.7122     0.0000     2.0000 </r>
       <r>   -24.5806     0.0000     2.0000 </r>
       <r>   -24.4489     0.0000     2.0000 </r>
       <r>   -24.3172     0.0000     2.0000 </r>
       <r>   -24.1855     0.0000     2.0000 </r>
       <r>   -24.0539     0.0000     2.0000 </r>
       <r>   -23.9222     0.0000     2.0000 </r>
       <r>   -23.7905     0.0000     2.0000 </r>
       <r>   -23.6588     0.0000     2.0000 </r>
       <r>   -23.5271     0.0000     2.0000 </r>
       <r>   -23.3955     0.0000     2.0000 </r>
       <r>   -23.2638     0.0000     2.0000 </r>
       <r>   -23.1321     0.0000     2.0000 </r>
       <r>   -23.0004     0.0000     2.0000 </r>
       <r>   -22.8687     0.0000     2.0000 </r>
       <r>   -22.7371     0.0000     2.0000 </r>
       <r>   -22.6054     0.0000     2.0000 </r>
       <r>   -22.4737     0.0000     2.0000 </r>
       <r>   -22.3420     0.0365     2.0048 </r>
       <r>   -22.2103     4.2800     2.5684 </r>
       <r>   -22.0787     9.2750     3.7897 </r>
       <r>   -21.9470     4.9652     4.4435 </r>
       <r>   -21.8153    10.6975     5.8522 </r>
       <r>   -21.6836     5.5410     6.5818 </r>
       <r>   -21.5519     7.7254     7.5991 </r>
       <r>   -21.4203    12.5846     9.2562 </r>
       <r>   -21.2886     5.6419     9.9991 </r>
       <r>   -21.1569     3.7310    10.4904 </r>
       <r>   -21.0252     9.1381    11.6937 </r>
       <r>   -20.8936    10.5414    13.0818 </r>
       <r>   -20.7619    10.2424    14.4305 </r>
       <r>   -20.6302     8.5104    15.5512 </r>
       <r>   -20.4985     0.1999    15.5775 </r>
       <r>   -20.3668    13.0794    17.2998 </r>
       <r>   -20.2352     3.9785    17.8237 </r>
       <r>   -20.1035    18.5391    20.2649 </r>
       <r>   -19.9718     1.3765    20.4461 </r>
       <r>   -19.8401     3.5250    20.9103 </r>
       <r>   -19.7084    13.9269    22.7442 </r>
       <r>   -19.5768     8.4962    23.8630 </r>
       <r>   -19.4451     6.0952    24.6656 </r>
       <r>   -19.3134     6.8603    25.5689 </r>
       <r>   -19.1817    13.9296    27.4032 </r>
       <r>   -19.0500     7.5464    28.3969 </r>
       <r>   -18.9184     4.6977    29.0154 </r>
       <r>   -18.7867     5.3822    29.7242 </r>
       <r>   -18.6550     5.1130    30.3974 </r>
       <r>   -18.5233    13.9091    32.2290 </r>
       <r>   -18.3916    11.3154    33.7190 </r>
       <r>   -18.2600     8.8031    34.8782 </r>
       <r>   -18.1283     4.6835    35.4949 </r>
       <r>   -17.9966    15.4262    37.5262 </r>
       <r>   -17.8649     4.8109    38.1597 </r>
       <r>   -17.7333     3.7562    38.6543 </r>
       <r>   -17.6016     5.8193    39.4206 </r>
       <r>   -17.4699    15.6966    41.4875 </r>
       <r>   -17.3382     4.0159    42.0163 </r>
       <r>   -17.2065    21.5259    44.8508 </r>
       <r>   -17.0749     6.9088    45.7606 </r>
       <r>   -16.9432     3.5045    46.2220 </r>
       <r>   -16.8115     8.8197    47.3834 </r>
       <r>   -16.6798     4.0374    47.9150 </r>
       <r>   -16.5481     8.9176    49.0893 </r>
       <r>   -16.4165     8.8201    50.2507 </r>
       <r>   -16.2848     3.1630    50.6672 </r>
       <r>   -16.1531     9.1833    51.8765 </r>
       <r>   -16.0214     5.8596    52.6481 </r>
       <r>   -15.8897    13.0389    54.3650 </r>
       <r>   -15.7581    12.1039    55.9588 </r>
       <r>   -15.6264     2.1207    56.2381 </r>
       <r>   -15.4947     4.2449    56.7971 </r>
       <r>   -15.3630     2.7401    57.1579 </r>
       <r>   -15.2313    10.1008    58.4879 </r>
       <r>   -15.0997    21.9888    61.3834 </r>
       <r>   -14.9680     4.8631    62.0238 </r>
       <r>   -14.8363    11.3888    63.5234 </r>
       <r>   -14.7046    10.4725    64.9024 </r>
       <r>   -14.5730     6.4405    65.7505 </r>
       <r>   -14.4413    15.5081    67.7926 </r>
       <r>   -14.3096     4.9500    68.4444 </r>
       <r>   -14.1779     0.9572    68.5705 </r>
       <r>   -14.0462     4.1410    69.1157 </r>
       <r>   -13.9146     9.8905    70.4181 </r>
       <r>   -13.7829    16.3374    72.5694 </r>
       <r>   -13.6512    18.4072    74.9933 </r>
       <r>   -13.5195     1.6739    75.2137 </r>
       <r>   -13.3878     2.5916    75.5549 </r>
       <r>   -13.2562     0.4630    75.6159 </r>
       <r>   -13.1245    11.1056    77.0783 </r>
       <r>   -12.9928    13.8961    78.9081 </r>
       <r>   -12.8611    20.3967    81.5939 </r>
       <r>   -12.7294     1.3965    81.7778 </r>
       <r>   -12.5978     4.4534    82.3642 </r>
       <r>   -12.4661    17.8378    84.7131 </r>
       <r>   -12.3344    10.9278    86.1521 </r>
       <r>   -12.2027     3.6441    86.6319 </r>
       <r>   -12.0710     3.1014    87.0403 </r>
       <r>   -11.9394    12.2513    88.6535 </r>
       <r>   -11.8077     3.6101    89.1289 </r>
       <r>   -11.6760    15.4091    91.1580 </r>
       <r>   -11.5443    18.0690    93.5373 </r>
       <r>   -11.4127    13.6396    95.3333 </r>
       <r>   -11.2810     8.4415    96.4449 </r>
       <r>   -11.1493     5.5953    97.1817 </r>
       <r>   -11.0176     7.9216    98.2248 </r>
       <r>   -10.8859    12.6315    99.8881 </r>
       <r>   -10.7543    17.2988   102.1660 </r>
       <r>   -10.6226     1.8200   102.4057 </r>
       <r>   -10.4909    20.5339   105.1095 </r>
       <r>   -10.3592     4.0097   105.6375 </r>
       <r>   -10.2275    24.1049   108.8116 </r>
       <r>   -10.0959    25.7586   112.2035 </r>
       <r>    -9.9642    18.5791   114.6500 </r>
       <r>    -9.8325    14.2834   116.5308 </r>
       <r>    -9.7008    17.6927   118.8606 </r>
       <r>    -9.5691    27.3970   122.4682 </r>
       <r>    -9.4375    21.0392   125.2386 </r>
       <r>    -9.3058    27.3338   128.8379 </r>
       <r>    -9.1741    23.5014   131.9326 </r>
       <r>    -9.0424    28.3814   135.6698 </r>
       <r>    -8.9107    20.4244   138.3593 </r>
       <r>    -8.7791    17.7411   140.6954 </r>
       <r>    -8.6474    22.8860   143.7090 </r>
       <r>    -8.5157    17.6465   146.0327 </r>
       <r>    -8.3840    16.5797   148.2159 </r>
       <r>    -8.2524    15.2948   150.2299 </r>
       <r>    -8.1207    15.7880   152.3089 </r>
       <r>    -7.9890    28.7220   156.0910 </r>
       <r>    -7.8573    16.1951   158.2235 </r>
       <r>    -7.7256    16.7204   160.4253 </r>
       <r>    -7.5940     7.7926   161.4514 </r>
       <r>    -7.4623     2.5005   161.7806 </r>
       <r>    -7.3306    17.2058   164.0463 </r>
       <r>    -7.1989    32.2989   168.2994 </r>
       <r>    -7.0672    16.1117   170.4210 </r>
       <r>    -6.9356     4.2894   170.9858 </r>
       <r>    -6.8039    19.3388   173.5323 </r>
       <r>    -6.6722    12.4129   175.1668 </r>
       <r>    -6.5405    16.1626   177.2951 </r>
       <r>    -6.4088     7.2363   178.2480 </r>
       <r>    -6.2772    12.5006   179.8940 </r>
       <r>    -6.1455    15.1897   181.8942 </r>
       <r>    -6.0138    13.8910   183.7234 </r>
       <r>    -5.8821    19.8021   186.3309 </r>
       <r>    -5.7505     8.0478   187.3906 </r>
       <r>    -5.6188    13.7384   189.1997 </r>
       <r>    -5.4871     3.3669   189.6430 </r>
       <r>    -5.3554     7.9213   190.6861 </r>
       <r>    -5.2237     8.6795   191.8290 </r>
       <r>    -5.0921    11.5350   193.3479 </r>
       <r>    -4.9604    17.8740   195.7016 </r>
       <r>    -4.8287    15.8309   197.7862 </r>
       <r>    -4.6970     3.2058   198.2083 </r>
       <r>    -4.5653     0.1057   198.2222 </r>
       <r>    -4.4337     0.0000   198.2222 </r>
       <r>    -4.3020     2.6488   198.5710 </r>
       <r>    -4.1703    17.3178   200.8514 </r>
       <r>    -4.0386     5.3462   201.5554 </r>
       <r>    -3.9069     0.0013   201.5556 </r>
       <r>    -3.7753     0.3787   201.6054 </r>
       <r>    -3.6436     2.9761   201.9973 </r>
       <r>    -3.5119     0.2246   202.0269 </r>
       <r>    -3.3802     4.1956   202.5794 </r>
       <r>    -3.2485    12.3344   204.2035 </r>
       <r>    -3.1169    10.6849   205.6105 </r>
       <r>    -2.9852     2.9980   206.0053 </r>
       <r>    -2.8535     2.3810   206.3188 </r>
       <r>    -2.7218     9.2874   207.5418 </r>
       <r>    -2.5902     0.1047   207.5556 </r>
       <r>    -2.4585     0.0743   207.5653 </r>
       <r>    -2.3268     3.1606   207.9815 </r>
       <r>    -2.1951     2.8473   208.3564 </r>
       <r>    -2.0634     0.6682   208.4444 </r>
       <r>    -1.9318     0.0000   208.4444 </r>
       <r>    -1.8001     0.0000   208.4444 </r>
       <r>    -1.6684     0.1567   208.4651 </r>
       <r>    -1.5367     9.4420   209.7084 </r>
       <r>    -1.4050    12.4435   211.3470 </r>
       <r>    -1.2734     3.2717   211.7778 </r>
       <r>    -1.1417     0.0001   211.7778 </r>
       <r>    -1.0100     1.0518   211.9163 </r>
       <r>    -0.8783    10.4066   213.2866 </r>
       <r>    -0.7466    23.3601   216.3627 </r>
       <r>    -0.6150    18.5285   218.8025 </r>
       <r>    -0.4833     5.4298   219.5175 </r>
       <r>    -0.3516     0.3131   219.5587 </r>
       <r>    -0.2199     4.3993   220.1380 </r>
       <r>    -0.0882    11.1490   221.6061 </r>
       <r>     0.0434    10.5861   223.0000 </r>
       <r>     0.1751     0.9592   223.1263 </r>
       <r>     0.3068    15.7596   225.2016 </r>
       <r>     0.4385     7.8098   226.2299 </r>
       <r>     0.5701     3.3219   226.6674 </r>
       <r>     0.7018    10.6017   228.0634 </r>
       <r>     0.8335    17.3218   230.3443 </r>
       <r>     0.9652     6.1432   231.1532 </r>
       <r>     1.0969    10.7879   232.5738 </r>
       <r>     1.2285    15.2560   234.5827 </r>
       <r>     1.3602     8.0731   235.6457 </r>
       <r>     1.4919    14.9420   237.6133 </r>
       <r>     1.6236    22.8755   240.6255 </r>
       <r>     1.7553    15.3601   242.6481 </r>
       <r>     1.8869    27.8206   246.3115 </r>
       <r>     2.0186     8.5034   247.4312 </r>
       <r>     2.1503    15.8991   249.5248 </r>
       <r>     2.2820    25.8924   252.9343 </r>
       <r>     2.4137    28.9984   256.7528 </r>
       <r>     2.5453     7.8469   257.7861 </r>
       <r>     2.6770     6.1652   258.5979 </r>
       <r>     2.8087     8.8998   259.7698 </r>
       <r>     2.9404     5.3730   260.4773 </r>
       <r>     3.0721     9.0801   261.6730 </r>
       <r>     3.2037     2.7488   262.0349 </r>
       <r>     3.3354     4.7612   262.6619 </r>
       <r>     3.4671     0.0369   262.6667 </r>
       <r>     3.5988     2.9843   263.0597 </r>
       <r>     3.7304     3.7636   263.5553 </r>
       <r>     3.8621     0.0019   263.5556 </r>
       <r>     3.9938     0.0000   263.5556 </r>
       <r>     4.1255     0.2964   263.5946 </r>
       <r>     4.2572     3.0488   263.9960 </r>
       <r>     4.3888     0.0300   264.0000 </r>
       <r>     4.5205     0.0000   264.0000 </r>
       <r>     4.6522     0.0000   264.0000 </r>
       <r>     4.7839     0.0000   264.0000 </r>
       <r>     4.9156     0.0000   264.0000 </r>
       <r>     5.0472     0.0000   264.0000 </r>
       <r>     5.1789     0.0000   264.0000 </r>
       <r>     5.3106     0.0000   264.0000 </r>
       <r>     5.4423     0.0000   264.0000 </r>
       <r>     5.5740     0.0000   264.0000 </r>
       <r>     5.7056     0.0000   264.0000 </r>
       <r>     5.8373     0.0000   264.0000 </r>
       <r>     5.9690     0.0000   264.0000 </r>
      </set>
     </set>
    </array>
   </total>
  </dos>
 </calculation>
 <structure name="finalpos" >
  <crystal>
   <varray name="basis" >
    <v>      12.30000019       0.00000000       0.00000000 </v>
    <v>       6.15000080      10.65211222       0.00000000 </v>
    <v>       0.00000000       0.00000000      20.00000000 </v>
   </varray>
   <i name="volume">   2620.41964732 </i>
   <varray name="rec_basis" >
    <v>       0.08130081      -0.04693905       0.00000000 </v>
    <v>       0.00000000       0.09387809       0.00000000 </v>
    <v>       0.00000000       0.00000000       0.05000000 </v>
   </varray>
  </crystal>
  <varray name="positions" >
   <v>       0.00000000       0.00000000       0.41799748 </v>
   <v>       0.20000000       0.00000000       0.41799748 </v>
   <v>       0.40000000       0.00000000       0.41799748 </v>
   <v>       0.60000000       0.00000000       0.41799748 </v>
   <v>       0.80000000       0.00000000       0.41799748 </v>
   <v>       0.00000000       0.20000000       0.41799748 </v>
   <v>       0.20000000       0.20000000       0.41799748 </v>
   <v>       0.40000000       0.20000000       0.41799748 </v>
   <v>       0.60000000       0.20000000       0.41799748 </v>
   <v>       0.80000000       0.20000000       0.41799748 </v>
   <v>       0.00000000       0.40000000       0.41799748 </v>
   <v>       0.20000000       0.40000000       0.41799748 </v>
   <v>       0.40000000       0.40000000       0.41799748 </v>
   <v>       0.60000000       0.40000000       0.41799748 </v>
   <v>       0.80000000       0.40000000       0.41799748 </v>
   <v>       0.00000000       0.60000000       0.41799748 </v>
   <v>       0.20000000       0.60000000       0.41799748 </v>
   <v>       0.40000000       0.60000000       0.41799748 </v>
   <v>       0.60000000       0.60000000       0.41799748 </v>
   <v>       0.80000000       0.60000000       0.41799748 </v>
   <v>       0.00000000       0.80000000       0.41799748 </v>
   <v>       0.20000000       0.80000000       0.41799748 </v>
   <v>       0.40000000       0.80000000       0.41799748 </v>
   <v>       0.60000000       0.80000000       0.41799748 </v>
   <v>       0.80000000       0.80000000       0.41799748 </v>
   <v>       0.06666667       0.06666660       0.41800609 </v>
   <v>       0.26666667       0.06747961       0.41800609 </v>
   <v>       0.46666667       0.06666660       0.41800609 </v>
   <v>       0.66666667       0.06666660       0.41800609 </v>
   <v>       0.86666667       0.06666660       0.41800609 </v>
   <v>       0.06666667       0.26666660       0.41800609 </v>
   <v>       0.26666667       0.26666660       0.41800609 </v>
   <v>       0.46666667       0.26666660       0.41800609 </v>
   <v>       0.66666667       0.26666660       0.41800609 </v>
   <v>       0.86666667       0.26666660       0.41800609 </v>
   <v>       0.06666667       0.46666660       0.41800609 </v>
   <v>       0.26666667       0.46666660       0.41800609 </v>
   <v>       0.46666667       0.46666660       0.41800609 </v>
   <v>       0.66666667       0.46666660       0.41800609 </v>
   <v>       0.86666667       0.46666660       0.41800609 </v>
   <v>       0.06666667       0.66666660       0.41800609 </v>
   <v>       0.26666667       0.66666660       0.41800609 </v>
   <v>       0.46666667       0.66666660       0.41800609 </v>
   <v>       0.66666667       0.66666660       0.41800609 </v>
   <v>       0.86666667       0.66666660       0.41800609 </v>
   <v>       0.06666667       0.86666660       0.41800609 </v>
   <v>       0.26666667       0.86666660       0.41800609 </v>
   <v>       0.46666667       0.86666660       0.41800609 </v>
   <v>       0.66666667       0.86666660       0.41800609 </v>
   <v>       0.86666667       0.86666660       0.41800609 </v>
   <v>       0.40000000       0.40000000       0.46800609 </v>
  </varray>
  <varray name="velocities" >
   <v>       0.00000000       0.00000000       0.00000000 </v>
   <v>       0.00000000       0.00000000       0.00000000 </v>
   <v>       0.00000000       0.00000000       0.00000000 </v>
   <v>       0.00000000       0.00000000       0.00000000 </v>
   <v>       0.00000000       0.00000000       0.00000000 </v>
   <v>       0.00000000       0.00000000       0.00000000 </v>
   <v>       0.00000000       0.00000000       0.00000000 </v>
   <v>       0.00000000       0.00000000       0.00000000 </v>
   <v>       0.00000000       0.00000000       0.00000000 </v>
   <v>       0.00000000       0.00000000       0.00000000 </v>
   <v>       0.00000000       0.00000000       0.00000000 </v>
   <v>       0.00000000       0.00000000       0.00000000 </v>
   <v>       0.00000000       0.00000000       0.00000000 </v>
   <v>       0.00000000       0.00000000       0.00000000 </v>
   <v>       0.00000000       0.00000000       0.00000000 </v>
   <v>       0.00000000       0.00000000       0.00000000 </v>
   <v>       0.00000000       0.00000000       0.00000000 </v>
   <v>       0.00000000       0.00000000       0.00000000 </v>
   <v>       0.00000000       0.00000000       0.00000000 </v>
   <v>       0.00000000       0.00000000       0.00000000 </v>
   <v>       0.00000000       0.00000000       0.00000000 </v>
   <v>       0.00000000       0.00000000       0.00000000 </v>
   <v>       0.00000000       0.00000000       0.00000000 </v>
   <v>       0.00000000       0.00000000       0.00000000 </v>
   <v>       0.00000000       0.00000000       0.00000000 </v>
   <v>       0.00000000       0.00000000       0.00000000 </v>
   <v>       0.00000000       0.00000000       0.00000000 </v>
   <v>       0.00000000       0.00000000       0.00000000 </v>
   <v>       0.00000000       0.00000000       0.00000000 </v>
   <v>       0.00000000       0.00000000       0.00000000 </v>
   <v>       0.00000000       0.00000000       0.00000000 </v>
   <v>       0.00000000       0.00000000       0.00000000 </v>
   <v>       0.00000000       0.00000000       0.00000000 </v>
   <v>       0.00000000       0.00000000       0.00000000 </v>
   <v>       0.00000000       0.00000000       0.00000000 </v>
   <v>       0.00000000       0.00000000       0.00000000 </v>
   <v>       0.00000000       0.00000000       0.00000000 </v>
   <v>       0.00000000       0.00000000       0.00000000 </v>
   <v>       0.00000000       0.00000000       0.00000000 </v>
   <v>       0.00000000       0.00000000       0.00000000 </v>
   <v>       0.00000000       0.00000000       0.00000000 </v>
   <v>       0.00000000       0.00000000       0.00000000 </v>
   <v>       0.00000000       0.00000000       0.00000000 </v>
   <v>       0.00000000       0.00000000       0.00000000 </v>
   <v>       0.00000000       0.00000000       0.00000000 </v>
   <v>       0.00000000       0.00000000       0.00000000 </v>
   <v>       0.00000000       0.00000000       0.00000000 </v>
   <v>       0.00000000       0.00000000       0.00000000 </v>
   <v>       0.00000000       0.00000000       0.00000000 </v>
   <v>       0.00000000       0.00000000       0.00000000 </v>
   <v>       0.00000000       0.00000000       0.00000000 </v>
  </varray>
 </structure>
</modeling>
