  51  51   0   0
  0.5138078E+02  0.1230000E-08  0.1230000E-08  0.2000000E-08  0.5000000E-15
  1.000000000000000E-004
  CAR 
                                         
      5.97140048    -33.53283917  301     -3.01658753      1.00000000
    -33.533  0.0000E+00  0.0000E+00
    -33.401  0.0000E+00  0.0000E+00
    -33.269  0.0000E+00  0.0000E+00
    -33.138  0.0000E+00  0.0000E+00
    -33.006  0.0000E+00  0.0000E+00
    -32.874  0.0000E+00  0.0000E+00
    -32.743  0.0000E+00  0.0000E+00
    -32.611  0.0000E+00  0.0000E+00
    -32.479  0.0000E+00  0.0000E+00
    -32.348  0.0000E+00  0.0000E+00
    -32.216  0.0000E+00  0.0000E+00
    -32.084  0.0000E+00  0.0000E+00
    -31.953  0.8262E-08  0.1088E-08
    -31.821  0.1346E+00  0.1772E-01
    -31.689  0.1372E+02  0.1824E+01
    -31.558  0.1337E+01  0.2000E+01
    -31.426  0.2904E-05  0.2000E+01
    -31.294  0.0000E+00  0.2000E+01
    -31.163  0.0000E+00  0.2000E+01
    -31.031  0.0000E+00  0.2000E+01
    -30.899  0.0000E+00  0.2000E+01
    -30.768  0.0000E+00  0.2000E+01
    -30.636  0.0000E+00  0.2000E+01
    -30.504  0.0000E+00  0.2000E+01
    -30.372  0.0000E+00  0.2000E+01
    -30.241  0.0000E+00  0.2000E+01
    -30.109  0.0000E+00  0.2000E+01
    -29.977  0.0000E+00  0.2000E+01
    -29.846  0.0000E+00  0.2000E+01
    -29.714  0.0000E+00  0.2000E+01
    -29.582  0.0000E+00  0.2000E+01
    -29.451  0.0000E+00  0.2000E+01
    -29.319  0.0000E+00  0.2000E+01
    -29.187  0.0000E+00  0.2000E+01
    -29.056  0.0000E+00  0.2000E+01
    -28.924  0.0000E+00  0.2000E+01
    -28.792  0.0000E+00  0.2000E+01
    -28.661  0.0000E+00  0.2000E+01
    -28.529  0.0000E+00  0.2000E+01
    -28.397  0.0000E+00  0.2000E+01
    -28.266  0.0000E+00  0.2000E+01
    -28.134  0.0000E+00  0.2000E+01
    -28.002  0.0000E+00  0.2000E+01
    -27.871  0.0000E+00  0.2000E+01
    -27.739  0.0000E+00  0.2000E+01
    -27.607  0.0000E+00  0.2000E+01
    -27.476  0.0000E+00  0.2000E+01
    -27.344  0.0000E+00  0.2000E+01
    -27.212  0.0000E+00  0.2000E+01
    -27.080  0.0000E+00  0.2000E+01
    -26.949  0.0000E+00  0.2000E+01
    -26.817  0.0000E+00  0.2000E+01
    -26.685  0.0000E+00  0.2000E+01
    -26.554  0.0000E+00  0.2000E+01
    -26.422  0.0000E+00  0.2000E+01
    -26.290  0.0000E+00  0.2000E+01
    -26.159  0.0000E+00  0.2000E+01
    -26.027  0.0000E+00  0.2000E+01
    -25.895  0.0000E+00  0.2000E+01
    -25.764  0.0000E+00  0.2000E+01
    -25.632  0.0000E+00  0.2000E+01
    -25.500  0.0000E+00  0.2000E+01
    -25.369  0.0000E+00  0.2000E+01
    -25.237  0.0000E+00  0.2000E+01
    -25.105  0.0000E+00  0.2000E+01
    -24.974  0.0000E+00  0.2000E+01
    -24.842  0.0000E+00  0.2000E+01
    -24.710  0.0000E+00  0.2000E+01
    -24.579  0.0000E+00  0.2000E+01
    -24.447  0.0000E+00  0.2000E+01
    -24.315  0.0000E+00  0.2000E+01
    -24.184  0.0000E+00  0.2000E+01
    -24.052  0.0000E+00  0.2000E+01
    -23.920  0.0000E+00  0.2000E+01
    -23.788  0.0000E+00  0.2000E+01
    -23.657  0.0000E+00  0.2000E+01
    -23.525  0.0000E+00  0.2000E+01
    -23.393  0.0000E+00  0.2000E+01
    -23.262  0.0000E+00  0.2000E+01
    -23.130  0.0000E+00  0.2000E+01
    -22.998  0.0000E+00  0.2000E+01
    -22.867  0.0000E+00  0.2000E+01
    -22.735  0.0000E+00  0.2000E+01
    -22.603  0.0000E+00  0.2000E+01
    -22.472  0.1281E-07  0.2000E+01
    -22.340  0.4482E-01  0.2006E+01
    -22.208  0.4597E+01  0.2611E+01
    -22.077  0.9111E+01  0.3811E+01
    -21.945  0.4856E+01  0.4450E+01
    -21.813  0.1074E+02  0.5864E+01
    -21.682  0.5536E+01  0.6593E+01
    -21.550  0.7616E+01  0.7596E+01
    -21.418  0.1287E+02  0.9290E+01
    -21.287  0.5386E+01  0.1000E+02
    -21.155  0.3749E+01  0.1049E+02
    -21.023  0.9381E+01  0.1173E+02
    -20.891  0.1061E+02  0.1313E+02
    -20.760  0.1010E+02  0.1446E+02
    -20.628  0.8327E+01  0.1555E+02
    -20.496  0.2077E+00  0.1558E+02
    -20.365  0.1318E+02  0.1732E+02
    -20.233  0.3937E+01  0.1783E+02
    -20.101  0.1864E+02  0.2029E+02
    -19.970  0.1200E+01  0.2045E+02
    -19.838  0.3640E+01  0.2093E+02
    -19.706  0.1410E+02  0.2278E+02
    -19.575  0.8356E+01  0.2388E+02
    -19.443  0.5945E+01  0.2467E+02
    -19.311  0.7102E+01  0.2560E+02
    -19.180  0.1390E+02  0.2743E+02
    -19.048  0.7410E+01  0.2841E+02
    -18.916  0.4877E+01  0.2905E+02
    -18.785  0.5131E+01  0.2973E+02
    -18.653  0.5176E+01  0.3041E+02
    -18.521  0.1395E+02  0.3224E+02
    -18.390  0.1141E+02  0.3375E+02
    -18.258  0.8615E+01  0.3488E+02
    -18.126  0.4909E+01  0.3553E+02
    -17.995  0.1521E+02  0.3753E+02
    -17.863  0.4834E+01  0.3817E+02
    -17.731  0.3737E+01  0.3866E+02
    -17.599  0.5807E+01  0.3942E+02
    -17.468  0.1584E+02  0.4151E+02
    -17.336  0.4176E+01  0.4206E+02
    -17.204  0.2136E+02  0.4487E+02
    -17.073  0.6762E+01  0.4576E+02
    -16.941  0.3512E+01  0.4622E+02
    -16.809  0.8973E+01  0.4741E+02
    -16.678  0.3760E+01  0.4790E+02
    -16.546  0.9084E+01  0.4910E+02
    -16.414  0.8877E+01  0.5027E+02
    -16.283  0.3064E+01  0.5067E+02
    -16.151  0.9307E+01  0.5190E+02
    -16.019  0.5874E+01  0.5267E+02
    -15.888  0.1306E+02  0.5439E+02
    -15.756  0.1195E+02  0.5596E+02
    -15.624  0.2196E+01  0.5625E+02
    -15.493  0.4245E+01  0.5681E+02
    -15.361  0.2658E+01  0.5716E+02
    -15.229  0.1019E+02  0.5850E+02
    -15.098  0.2202E+02  0.6140E+02
    -14.966  0.4773E+01  0.6203E+02
    -14.834  0.1158E+02  0.6355E+02
    -14.702  0.1035E+02  0.6492E+02
    -14.571  0.6386E+01  0.6576E+02
    -14.439  0.1584E+02  0.6784E+02
    -14.307  0.4562E+01  0.6844E+02
    -14.176  0.1031E+01  0.6858E+02
    -14.044  0.4088E+01  0.6912E+02
    -13.912  0.1016E+02  0.7046E+02
    -13.781  0.1687E+02  0.7268E+02
    -13.649  0.1765E+02  0.7500E+02
    -13.517  0.1714E+01  0.7523E+02
    -13.386  0.2487E+01  0.7556E+02
    -13.254  0.5068E+00  0.7562E+02
    -13.122  0.1122E+02  0.7710E+02
    -12.991  0.1383E+02  0.7892E+02
    -12.859  0.2049E+02  0.8162E+02
    -12.727  0.1214E+01  0.8178E+02
    -12.596  0.5007E+01  0.8244E+02
    -12.464  0.1747E+02  0.8474E+02
    -12.332  0.1080E+02  0.8616E+02
    -12.201  0.3648E+01  0.8664E+02
    -12.069  0.2975E+01  0.8703E+02
    -11.937  0.1231E+02  0.8865E+02
    -11.806  0.3560E+01  0.8912E+02
    -11.674  0.1626E+02  0.9126E+02
    -11.542  0.1761E+02  0.9358E+02
    -11.410  0.1345E+02  0.9535E+02
    -11.279  0.8637E+01  0.9649E+02
    -11.147  0.5346E+01  0.9719E+02
    -11.015  0.7842E+01  0.9823E+02
    -10.884  0.1293E+02  0.9993E+02
    -10.752  0.1698E+02  0.1022E+03
    -10.620  0.2038E+01  0.1024E+03
    -10.489  0.2045E+02  0.1051E+03
    -10.357  0.3958E+01  0.1056E+03
    -10.225  0.2481E+02  0.1089E+03
    -10.094  0.2524E+02  0.1122E+03
     -9.962  0.1834E+02  0.1147E+03
     -9.830  0.1506E+02  0.1166E+03
     -9.699  0.1714E+02  0.1189E+03
     -9.567  0.2755E+02  0.1225E+03
     -9.435  0.2093E+02  0.1253E+03
     -9.304  0.2742E+02  0.1289E+03
     -9.172  0.2343E+02  0.1320E+03
     -9.040  0.2855E+02  0.1357E+03
     -8.909  0.2034E+02  0.1384E+03
     -8.777  0.1742E+02  0.1407E+03
     -8.645  0.2322E+02  0.1438E+03
     -8.513  0.1741E+02  0.1461E+03
     -8.382  0.1656E+02  0.1482E+03
     -8.250  0.1519E+02  0.1502E+03
     -8.118  0.1614E+02  0.1524E+03
     -7.987  0.2882E+02  0.1562E+03
     -7.855  0.1609E+02  0.1583E+03
     -7.723  0.1632E+02  0.1604E+03
     -7.592  0.8060E+01  0.1615E+03
     -7.460  0.2214E+01  0.1618E+03
     -7.328  0.1761E+02  0.1641E+03
     -7.197  0.3254E+02  0.1684E+03
     -7.065  0.1548E+02  0.1704E+03
     -6.933  0.4582E+01  0.1710E+03
     -6.802  0.1914E+02  0.1735E+03
     -6.670  0.1267E+02  0.1752E+03
     -6.538  0.1608E+02  0.1773E+03
     -6.407  0.7052E+01  0.1783E+03
     -6.275  0.1239E+02  0.1799E+03
     -6.143  0.1550E+02  0.1819E+03
     -6.012  0.1366E+02  0.1837E+03
     -5.880  0.2021E+02  0.1864E+03
     -5.748  0.7745E+01  0.1874E+03
     -5.617  0.1361E+02  0.1892E+03
     -5.485  0.3422E+01  0.1897E+03
     -5.353  0.7809E+01  0.1907E+03
     -5.221  0.8675E+01  0.1918E+03
     -5.090  0.1177E+02  0.1934E+03
     -4.958  0.1843E+02  0.1958E+03
     -4.826  0.1507E+02  0.1978E+03
     -4.695  0.3192E+01  0.1982E+03
     -4.563  0.8827E-01  0.1982E+03
     -4.431  0.3710E-04  0.1982E+03
     -4.300  0.2981E+01  0.1986E+03
     -4.168  0.1690E+02  0.2008E+03
     -4.036  0.5430E+01  0.2016E+03
     -3.905  0.1418E-02  0.2016E+03
     -3.773  0.3833E+00  0.2016E+03
     -3.641  0.2972E+01  0.2020E+03
     -3.510  0.2495E+00  0.2020E+03
     -3.378  0.4257E+01  0.2026E+03
     -3.246  0.1234E+02  0.2042E+03
     -3.115  0.1080E+02  0.2056E+03
     -2.983  0.2802E+01  0.2060E+03
     -2.851  0.2493E+01  0.2063E+03
     -2.720  0.9185E+01  0.2075E+03
     -2.588  0.8684E-01  0.2076E+03
     -2.456  0.9232E-01  0.2076E+03
     -2.324  0.3171E+01  0.2080E+03
     -2.193  0.2873E+01  0.2084E+03
     -2.061  0.6145E+00  0.2084E+03
     -1.929  0.6113E-05  0.2084E+03
     -1.798  0.4792E-07  0.2084E+03
     -1.666  0.2148E+00  0.2085E+03
     -1.534  0.9545E+01  0.2097E+03
     -1.403  0.1235E+02  0.2114E+03
     -1.271  0.3204E+01  0.2118E+03
     -1.139  0.1391E-03  0.2118E+03
     -1.008  0.1093E+01  0.2119E+03
     -0.876  0.1087E+02  0.2134E+03
     -0.744  0.2312E+02  0.2164E+03
     -0.613  0.1835E+02  0.2188E+03
     -0.481  0.5383E+01  0.2195E+03
     -0.349  0.2642E+00  0.2196E+03
     -0.218  0.4639E+01  0.2202E+03
     -0.086  0.1121E+02  0.2216E+03
      0.046  0.1040E+02  0.2230E+03
      0.177  0.8723E+00  0.2231E+03
      0.309  0.1587E+02  0.2252E+03
      0.441  0.7864E+01  0.2263E+03
      0.572  0.3179E+01  0.2267E+03
      0.704  0.1107E+02  0.2281E+03
      0.836  0.1684E+02  0.2303E+03
      0.968  0.6366E+01  0.2312E+03
      1.099  0.1077E+02  0.2326E+03
      1.231  0.1510E+02  0.2346E+03
      1.363  0.8208E+01  0.2357E+03
      1.494  0.1503E+02  0.2377E+03
      1.626  0.2298E+02  0.2407E+03
      1.758  0.1556E+02  0.2427E+03
      1.889  0.2749E+02  0.2463E+03
      2.021  0.8274E+01  0.2474E+03
      2.153  0.1617E+02  0.2496E+03
      2.284  0.2606E+02  0.2530E+03
      2.416  0.2887E+02  0.2568E+03
      2.548  0.7530E+01  0.2578E+03
      2.679  0.6211E+01  0.2586E+03
      2.811  0.9080E+01  0.2598E+03
      2.943  0.5141E+01  0.2605E+03
      3.074  0.9208E+01  0.2617E+03
      3.206  0.2721E+01  0.2621E+03
      3.338  0.4636E+01  0.2627E+03
      3.469  0.3159E-01  0.2627E+03
      3.601  0.3209E+01  0.2631E+03
      3.733  0.3540E+01  0.2636E+03
      3.865  0.1215E-02  0.2636E+03
      3.996  0.6408E-06  0.2636E+03
      4.128  0.2964E+00  0.2636E+03
      4.260  0.3049E+01  0.2640E+03
      4.391  0.3001E-01  0.2640E+03
      4.523  0.1851E-08  0.2640E+03
      4.655  0.0000E+00  0.2640E+03
      4.786  0.0000E+00  0.2640E+03
      4.918  0.0000E+00  0.2640E+03
      5.050  0.0000E+00  0.2640E+03
      5.181  0.0000E+00  0.2640E+03
      5.313  0.0000E+00  0.2640E+03
      5.445  0.0000E+00  0.2640E+03
      5.576  0.0000E+00  0.2640E+03
      5.708  0.0000E+00  0.2640E+03
      5.840  0.0000E+00  0.2640E+03
      5.971  0.0000E+00  0.2640E+03
