 running on   48 total cores
 distrk:  each k-point on   48 cores,    1 groups
 distr:  one band on    8 cores,    6 groups
 using from now: INCAR     
 vasp.5.4.4.18Apr17-6-g9f103f2a35 (build Aug 13 2022 23:40:43) complex          
  
 POSCAR found type information on POSCAR  C  O 
 POSCAR found :  2 types and      51 ions
 scaLAPACK will be used

 ----------------------------------------------------------------------------- 
|                                                                             |
|  ADVICE TO THIS USER RUNNING 'VASP/VAMP'   (HEAR YOUR MASTER'S VOICE ...):  |
|                                                                             |
|      You have a (more or less) 'large supercell' and for larger cells       |
|      it might be more efficient to use real space projection opertators     |
|      So try LREAL= Auto  in the INCAR   file.                               |
|      Mind:          For very  accurate calculation you might also keep the  |
|      reciprocal projection scheme          (i.e. LREAL=.FALSE.)             |
|                                                                             |
 ----------------------------------------------------------------------------- 

 LDA part: xc-table for Pade appr. of Perdew
 POSCAR found type information on POSCAR  C  O 
 POSCAR found :  2 types and      51 ions
 found WAVECAR, reading the header
  number of k-points has changed, file:     3 present:     5
  trying to continue reading WAVECAR, but it might fail
 POSCAR, INCAR and KPOINTS ok, starting setup
 FFT: planning ...
 reading WAVECAR
 the WAVECAR file was read successfully
 charge-density read from file: 1.00000000000000                        
 entering main loop
       N       E                     dE             d eps       ncg     rms          rms(c)
DAV:   1    -0.453290180336E+03   -0.45329E+03   -0.28412E+02  1356   0.217E+01    0.497E-01
RMM:   2    -0.454277924833E+03   -0.98774E+00   -0.99013E+00  1416   0.566E+00    0.199E-01
RMM:   3    -0.454330279608E+03   -0.52355E-01   -0.58558E-01  1584   0.109E+00    0.153E-01
RMM:   4    -0.454334144459E+03   -0.38649E-02   -0.40601E-02  1585   0.311E-01    0.151E-01
RMM:   5    -0.454334248369E+03   -0.10391E-03   -0.31359E-03  1515   0.900E-02    0.601E-02
RMM:   6    -0.454334274751E+03   -0.26381E-04   -0.47434E-04  1538   0.448E-02    0.139E-02
RMM:   7    -0.454334282021E+03   -0.72698E-05   -0.21244E-05  1029   0.109E-02
   1 F= -.45433428E+03 E0= -.45433422E+03  d E =-.115604E-03
