 vasp.5.4.4.18Apr17-6-g9f103f2a35 (build Aug 13 2022 23:40:43) complex          
  
 executed on             LinuxIFC date 2024.11.10  04:13:50
 running on   48 total cores
 distrk:  each k-point on   48 cores,    1 groups
 distr:  one band on NCORES_PER_BAND=   8 cores,    6 groups


--------------------------------------------------------------------------------------------------------


 INCAR:
 POTCAR:    PAW_PBE C 08Apr2002                   
 POTCAR:    PAW_PBE O 08Apr2002                   
 POTCAR:    PAW_PBE C 08Apr2002                   
   VRHFIN =C: s2p2                                                              
   LEXCH  = PE                                                                  
   EATOM  =   147.1560 eV,   10.8157 Ry                                         
                                                                                
   TITEL  = PAW_PBE C 08Apr2002                                                 
   LULTRA =        F    use ultrasoft PP ?                                      
   IUNSCR =        1    unscreen: 0-lin 1-nonlin 2-no                           
   RPACOR =    1.200    partial core radius                                     
   POMASS =   12.011; ZVAL   =    4.000    mass and valenz                      
   RCORE  =    1.500    outmost cutoff radius                                   
   RWIGS  =    1.630; RWIGS  =    0.863    wigner-seitz radius (au A)           
   ENMAX  =  400.000; ENMIN  =  300.000 eV                                      
   ICORE  =        2    local potential                                         
   LCOR   =        T    correct aug charges                                     
   LPAW   =        T    paw PP                                                  
   EAUG   =  644.873                                                            
   DEXC   =    0.000                                                            
   RMAX   =    1.529    core radius for proj-oper                               
   RAUG   =    1.300    factor for augmentation sphere                          
   RDEP   =    1.501    radius for radial grids                                 
   RDEPT  =    1.300    core radius for aug-charge                              
                                                                                
   Atomic configuration                                                         
    4 entries                                                                   
     n  l   j            E        occ.                                          
     1  0  0.50      -273.3789   2.0000                                         
     2  0  0.50       -13.7508   2.0000                                         
     2  1  0.50        -5.2854   2.0000                                         
     3  2  1.50        -5.4423   0.0000                                         
   Description                                                                  
     l       E           TYP  RCUT    TYP  RCUT                                 
     0    -13.7508458     23  1.200                                             
     0     -8.2022199     23  1.200                                             
     1     -5.2854383     23  1.500                                             
     1     34.0145650     23  1.500                                             
     2     -5.4423304      7  1.500                                             
  local pseudopotential read in
  partial core-charges read in
  partial kinetic energy density read in
  atomic valenz-charges read in
  non local Contribution for L=           0  read in
    real space projection operators read in
  non local Contribution for L=           0  read in
    real space projection operators read in
  non local Contribution for L=           1  read in
    real space projection operators read in
  non local Contribution for L=           1  read in
    real space projection operators read in
    PAW grid and wavefunctions read in
 
   number of l-projection  operators is LMAX  =           4
   number of lm-projection operators is LMMAX =           8
 
 POTCAR:    PAW_PBE O 08Apr2002                   
   VRHFIN =O: s2p4                                                              
   LEXCH  = PE                                                                  
   EATOM  =   432.3788 eV,   31.7789 Ry                                         
                                                                                
   TITEL  = PAW_PBE O 08Apr2002                                                 
   LULTRA =        F    use ultrasoft PP ?                                      
   IUNSCR =        1    unscreen: 0-lin 1-nonlin 2-no                           
   RPACOR =    1.200    partial core radius                                     
   POMASS =   16.000; ZVAL   =    6.000    mass and valenz                      
   RCORE  =    1.520    outmost cutoff radius                                   
   RWIGS  =    1.550; RWIGS  =    0.820    wigner-seitz radius (au A)           
   ENMAX  =  400.000; ENMIN  =  300.000 eV                                      
   ICORE  =        2    local potential                                         
   LCOR   =        T    correct aug charges                                     
   LPAW   =        T    paw PP                                                  
   EAUG   =  605.392                                                            
   DEXC   =    0.000                                                            
   RMAX   =    1.553    core radius for proj-oper                               
   RAUG   =    1.300    factor for augmentation sphere                          
   RDEP   =    1.550    radius for radial grids                                 
   RDEPT  =    1.329    core radius for aug-charge                              
                                                                                
   Atomic configuration                                                         
    4 entries                                                                   
     n  l   j            E        occ.                                          
     1  0  0.50      -514.6923   2.0000                                         
     2  0  0.50       -23.9615   2.0000                                         
     2  1  0.50        -9.0305   4.0000                                         
     3  2  1.50        -9.5241   0.0000                                         
   Description                                                                  
     l       E           TYP  RCUT    TYP  RCUT                                 
     0    -23.9615318     23  1.200                                             
     0     -9.5240782     23  1.200                                             
     1     -9.0304911     23  1.520                                             
     1      8.1634956     23  1.520                                             
     2     -9.5240782      7  1.500                                             
  local pseudopotential read in
  partial core-charges read in
  partial kinetic energy density read in
  kinetic energy density of atom read in
  atomic valenz-charges read in
  non local Contribution for L=           0  read in
    real space projection operators read in
  non local Contribution for L=           0  read in
    real space projection operators read in
  non local Contribution for L=           1  read in
    real space projection operators read in
  non local Contribution for L=           1  read in
    real space projection operators read in
    PAW grid and wavefunctions read in
 
   number of l-projection  operators is LMAX  =           4
   number of lm-projection operators is LMMAX =           8
 

 ----------------------------------------------------------------------------- 
|                                                                             |
|  ADVICE TO THIS USER RUNNING 'VASP/VAMP'   (HEAR YOUR MASTER'S VOICE ...):  |
|                                                                             |
|      You have a (more or less) 'large supercell' and for larger cells       |
|      it might be more efficient to use real space projection opertators     |
|      So try LREAL= Auto  in the INCAR   file.                               |
|      Mind:          For very  accurate calculation you might also keep the  |
|      reciprocal projection scheme          (i.e. LREAL=.FALSE.)             |
|                                                                             |
 ----------------------------------------------------------------------------- 

  PAW_PBE C 08Apr2002                   :
 energy of atom  1       EATOM= -147.1560
 kinetic energy error for atom=    0.0288 (will be added to EATOM!!)
  PAW_PBE O 08Apr2002                   :
 energy of atom  2       EATOM= -432.3788
 kinetic energy error for atom=    0.1156 (will be added to EATOM!!)
 
 
 POSCAR: generated by phonopy                    
  positions in direct lattice
  No initial velocities read in
 exchange correlation table for  LEXCH =        8
   RHO(1)=    0.500       N(1)  =     2000
   RHO(2)=  100.500       N(2)  =     4000

 VTST: version 3.2, (02/03/18)

 CHAIN: initializing optimizer
 
 OPT: Using VASP Dynamics algorithm
 CHAIN: Read ICHAIN            0
 
 POSCAR: generated by phonopy                    
  positions in direct lattice
  No initial velocities read in
 


--------------------------------------------------------------------------------------------------------


 ion  position               nearest neighbor table
   1  0.000  0.000  0.418-  26 1.42  30 1.42  46 1.42
   2  0.200  0.000  0.418-  27 1.42  26 1.42  47 1.42
   3  0.400  0.000  0.418-  28 1.41  27 1.42  48 1.42
   4  0.600  0.000  0.418-  29 1.42  49 1.42  28 1.42
   5  0.800  0.000  0.418-  30 1.42  29 1.42  50 1.42
   6  0.000  0.200  0.418-  31 1.42  35 1.42  26 1.42
   7  0.200  0.200  0.418-  32 1.42  31 1.42  27 1.42
   8  0.400  0.200  0.418-  33 1.42  32 1.42  28 1.43
   9  0.600  0.200  0.418-  34 1.42  33 1.42  29 1.42
  10  0.800  0.200  0.418-  35 1.42  34 1.42  30 1.42
  11  0.000  0.400  0.418-  36 1.42  40 1.42  31 1.42
  12  0.200  0.400  0.418-  37 1.42  36 1.42  32 1.42
  13  0.400  0.400  0.418-  51 1.00  38 1.42  37 1.42  33 1.42
  14  0.600  0.400  0.418-  39 1.42  38 1.42  34 1.42
  15  0.800  0.400  0.418-  40 1.42  39 1.42  35 1.42
  16  0.000  0.600  0.418-  41 1.42  45 1.42  36 1.42
  17  0.200  0.600  0.418-  42 1.42  41 1.42  37 1.42
  18  0.400  0.600  0.418-  43 1.42  42 1.42  38 1.42
  19  0.600  0.600  0.418-  44 1.42  43 1.42  39 1.42
  20  0.800  0.600  0.418-  45 1.42  44 1.42  40 1.42
  21  0.000  0.800  0.418-  46 1.42  50 1.42  41 1.42
  22  0.200  0.800  0.418-  47 1.42  46 1.42  42 1.42
  23  0.400  0.800  0.418-  48 1.42  47 1.42  43 1.42
  24  0.600  0.800  0.418-  49 1.42  48 1.42  44 1.42
  25  0.800  0.800  0.418-  50 1.42  49 1.42  45 1.42
  26  0.067  0.067  0.418-   1 1.42   2 1.42   6 1.42
  27  0.267  0.067  0.418-   2 1.42   3 1.42   7 1.42
  28  0.467  0.066  0.418-   3 1.41   4 1.42   8 1.43
  29  0.667  0.067  0.418-   4 1.42   5 1.42   9 1.42
  30  0.867  0.067  0.418-   5 1.42   1 1.42  10 1.42
  31  0.067  0.267  0.418-   6 1.42   7 1.42  11 1.42
  32  0.267  0.267  0.418-   7 1.42   8 1.42  12 1.42
  33  0.467  0.267  0.418-   8 1.42   9 1.42  13 1.42  51 1.74
  34  0.667  0.267  0.418-   9 1.42  10 1.42  14 1.42
  35  0.867  0.267  0.418-  10 1.42   6 1.42  15 1.42
  36  0.067  0.467  0.418-  11 1.42  12 1.42  16 1.42
  37  0.267  0.467  0.418-  12 1.42  13 1.42  17 1.42  51 1.74
  38  0.467  0.467  0.418-  13 1.42  14 1.42  18 1.42  51 1.74
  39  0.667  0.467  0.418-  14 1.42  15 1.42  19 1.42
  40  0.867  0.467  0.418-  15 1.42  11 1.42  20 1.42
  41  0.067  0.667  0.418-  16 1.42  17 1.42  21 1.42
  42  0.267  0.667  0.418-  17 1.42  18 1.42  22 1.42
  43  0.467  0.667  0.418-  18 1.42  19 1.42  23 1.42
  44  0.667  0.667  0.418-  19 1.42  20 1.42  24 1.42
  45  0.867  0.667  0.418-  20 1.42  16 1.42  25 1.42
  46  0.067  0.867  0.418-  21 1.42  22 1.42   1 1.42
  47  0.267  0.867  0.418-  22 1.42  23 1.42   2 1.42
  48  0.467  0.867  0.418-  23 1.42  24 1.42   3 1.42
  49  0.667  0.867  0.418-  24 1.42  25 1.42   4 1.42
  50  0.867  0.867  0.418-  25 1.42  21 1.42   5 1.42
  51  0.400  0.400  0.468-  13 1.00  38 1.74  37 1.74  33 1.74
 
  LATTYP: Found a hexagonal cell.
 ALAT       =    12.2999994816
 C/A-ratio  =     1.6260163287
  
  Lattice vectors:
  
 A1 = (   6.1499993860, -10.6521122225,   0.0000000000)
 A2 = ( -12.3000001905,   0.0000000000,   0.0000000000)
 A3 = (   0.0000000000,   0.0000000000, -20.0000000000)


Analysis of symmetry for initial positions (statically):
=====================================================================
 Subroutine PRICEL returns:
 Original cell was already a primitive cell.
 

 Routine SETGRP: Setting up the symmetry group for a 
 hexagonal supercell.


 Subroutine GETGRP returns: Found  1 space group operations
 (whereof  1 operations were pure point group operations)
 out of a pool of 24 trial point group operations.


The static configuration has the point symmetry C_1 .


Analysis of symmetry for dynamics (positions and initial velocities):
=====================================================================
 Subroutine PRICEL returns:
 Original cell was already a primitive cell.
 

 Routine SETGRP: Setting up the symmetry group for a 
 hexagonal supercell.


 Subroutine GETGRP returns: Found  1 space group operations
 (whereof  1 operations were pure point group operations)
 out of a pool of 24 trial point group operations.


The dynamic configuration has the point symmetry C_1 .


 Subroutine INISYM returns: Found  1 space group operations
 (whereof  1 operations are pure point group operations),
 and found     1 'primitive' translations

 
 
 KPOINTS: K-POINTS                                

Automatic generation of k-mesh.
Space group operators:
 irot       det(A)        alpha          n_x          n_y          n_z        tau_x        tau_y        tau_z
    1     1.000000     0.000000     1.000000     0.000000     0.000000     0.000000     0.000000     0.000000
 
 Subroutine IBZKPT returns following result:
 ===========================================
 
 Found      5 irreducible k-points:
 
 Following reciprocal coordinates:
            Coordinates               Weight
  0.000000  0.000000  0.000000      1.000000
  0.333333  0.000000  0.000000      2.000000
  0.000000  0.333333  0.000000      2.000000
  0.333333  0.333333  0.000000      2.000000
 -0.333333  0.333333  0.000000      2.000000
 
 Following cartesian coordinates:
            Coordinates               Weight
  0.000000  0.000000  0.000000      1.000000
  0.027100 -0.015646  0.000000      2.000000
  0.000000  0.031293  0.000000      2.000000
  0.027100  0.015646  0.000000      2.000000
 -0.027100  0.046939  0.000000      2.000000
 


--------------------------------------------------------------------------------------------------------




 Dimension of arrays:
   k-points           NKPTS =      5   k-points in BZ     NKDIM =      5   number of bands    NBANDS=    132
   number of dos      NEDOS =    301   number of ions     NIONS =     51
   non local maximal  LDIM  =      4   non local SUM 2l+1 LMDIM =      8
   total plane-waves  NPLWV = 896000
   max r-space proj   IRMAX =      1   max aug-charges    IRDMAX=  35685
   dimension x,y,z NGX =    80 NGY =   80 NGZ =  140
   dimension x,y,z NGXF=   160 NGYF=  160 NGZF=  280
   support grid    NGXF=   320 NGYF=  320 NGZF=  560
   ions per type =              50   1
   NGX,Y,Z   is equivalent  to a cutoff of  10.81, 10.81, 11.64 a.u.
   NGXF,Y,Z  is equivalent  to a cutoff of  21.63, 21.63, 23.27 a.u.

 SYSTEM =                                          
 POSCAR =  generated by phonopy                    

 Startparameter for this run:
   NWRITE =      2    write-flag & timer
   PREC   = accura    normal or accurate (medium, high low for compatibility)
   ISTART =      1    job   : 0-new  1-cont  2-samecut
   ICHARG =      1    charge: 1-file 2-atom 10-const
   ISPIN  =      1    spin polarized calculation?
   LNONCOLLINEAR =      F non collinear calculations
   LSORBIT =      F    spin-orbit coupling
   INIWAV =      1    electr: 0-lowe 1-rand  2-diag
   LASPH  =      F    aspherical Exc in radial PAW
   METAGGA=      F    non-selfconsistent MetaGGA calc.

 Electronic Relaxation 1
   ENCUT  =  400.0 eV  29.40 Ry    5.42 a.u.  20.06 20.06 32.61*2*pi/ulx,y,z
   ENINI  =  400.0     initial cutoff
   ENAUG  =  644.9 eV  augmentation charge cutoff
   NELM   =    300;   NELMIN=  2; NELMDL=  0     # of ELM steps 
   EDIFF  = 0.1E-04   stopping-criterion for ELM
   LREAL  =      F    real-space projection
   NLSPLINE    = F    spline interpolate recip. space projectors
   LCOMPAT=      F    compatible to vasp.4.4
   GGA_COMPAT  = T    GGA compatible to vasp.4.4-vasp.4.6
   LMAXPAW     = -100 max onsite density
   LMAXMIX     =    2 max onsite mixed and CHGCAR
   VOSKOWN=      0    Vosko Wilk Nusair interpolation
   ROPT   =    0.00000   0.00000
 Ionic relaxation
   EDIFFG = -.1E-02   stopping-criterion for IOM
   NSW    =      1    number of steps for IOM
   NBLOCK =      1;   KBLOCK =      1    inner block; outer block 
   IBRION =     -1    ionic relax: 0-MD 1-quasi-New 2-CG
   NFREE  =      0    steps in history (QN), initial steepest desc. (CG)
   ISIF   =      2    stress and relaxation
   IWAVPR =     10    prediction:  0-non 1-charg 2-wave 3-comb
   ISYM   =      2    0-nonsym 1-usesym 2-fastsym
   LCORR  =      T    Harris-Foulkes like correction to forces

   POTIM  = 0.5000    time-step for ionic-motion
   TEIN   =    0.0    initial temperature
   TEBEG  =    0.0;   TEEND  =   0.0 temperature during run
   SMASS  =  -3.00    Nose mass-parameter (am)
   estimated Nose-frequenzy (Omega)   =  0.10E-29 period in steps =****** mass=  -0.346E-26a.u.
   SCALEE = 1.0000    scale energy and forces
   NPACO  =    256;   APACO  = 16.0  distance and # of slots for P.C.
   PSTRESS=    0.0 pullay stress

  Mass of Ions in am
   POMASS =  12.01 16.00
  Ionic Valenz
   ZVAL   =   4.00  6.00
  Atomic Wigner-Seitz radii
   RWIGS  =  -1.00 -1.00
  virtual crystal weights 
   VCA    =   1.00  1.00
   NELECT =     206.0000    total number of electrons
   NUPDOWN=      -1.0000    fix difference up-down

 DOS related values:
   EMIN   =  10.00;   EMAX   =-10.00  energy-range for DOS
   EFERMI =   0.00
   ISMEAR =     0;   SIGMA  =   0.05  broadening in eV -4-tet -1-fermi 0-gaus

 Electronic relaxation 2 (details)
   IALGO  =     68    algorithm
   LDIAG  =      T    sub-space diagonalisation (order eigenvalues)
   LSUBROT=      F    optimize rotation matrix (better conditioning)
   TURBO    =      0    0=normal 1=particle mesh
   IRESTART =      0    0=no restart 2=restart with 2 vectors
   NREBOOT  =      0    no. of reboots
   NMIN     =      0    reboot dimension
   EREF     =   0.00    reference energy to select bands
   IMIX   =      4    mixing-type and parameters
     AMIX     =   0.40;   BMIX     =  1.00
     AMIX_MAG =   1.60;   BMIX_MAG =  1.00
     AMIN     =   0.10
     WC   =   100.;   INIMIX=   1;  MIXPRE=   1;  MAXMIX= -45

 Intra band minimization:
   WEIMIN = 0.0000     energy-eigenvalue tresh-hold
   EBREAK =  0.19E-07  absolut break condition
   DEPER  =   0.30     relativ break condition  

   TIME   =   0.40     timestep for ELM

  volume/ion in A,a.u.               =      51.38       346.73
  Fermi-wavevector in a.u.,A,eV,Ry     =   0.701305  1.325274  6.691736  0.491829
  Thomas-Fermi vector in A             =   1.785695
 
 Write flags
   LWAVE        =      F    write WAVECAR
   LDOWNSAMPLE  =      F    k-point downsampling of WAVECAR
   LCHARG       =      F    write CHGCAR
   LVTOT        =      F    write LOCPOT, total local potential
   LVHAR        =      F    write LOCPOT, Hartree potential only
   LELF         =      F    write electronic localiz. function (ELF)
   LORBIT       =      0    0 simple, 1 ext, 2 COOP (PROOUT), +10 PAW based schemes


 Dipole corrections
   LMONO  =      F    monopole corrections only (constant potential shift)
   LDIPOL =      F    correct potential (dipole corrections)
   IDIPOL =      0    1-x, 2-y, 3-z, 4-all directions 
   EPSILON=  1.0000000 bulk dielectric constant

 Exchange correlation treatment:
   GGA     =    --    GGA type
   LEXCH   =     8    internal setting for exchange type
   VOSKOWN=      0    Vosko Wilk Nusair interpolation
   LHFCALC =     F    Hartree Fock is set to
   LHFONE  =     F    Hartree Fock one center treatment
   AEXX    =    0.0000 exact exchange contribution

 Linear response parameters
   LEPSILON=     F    determine dielectric tensor
   LRPA    =     F    only Hartree local field effects (RPA)
   LNABLA  =     F    use nabla operator in PAW spheres
   LVEL    =     F    velocity operator in full k-point grid
   LINTERFAST=   F  fast interpolation
   KINTER  =     0    interpolate to denser k-point grid
   CSHIFT  =0.1000    complex shift for real part using Kramers Kronig
   OMEGAMAX=  -1.0    maximum frequency
   DEG_THRESHOLD= 0.2000000E-02 threshold for treating states as degnerate
   RTIME   =   -0.100 relaxation time in fs
  (WPLASMAI=    0.000 imaginary part of plasma frequency in eV, 0.658/RTIME)
   DFIELD  = 0.0000000 0.0000000 0.0000000 field for delta impulse in time
 
 Orbital magnetization related:
   ORBITALMAG=     F  switch on orbital magnetization
   LCHIMAG   =     F  perturbation theory with respect to B field
   DQ        =  0.001000  dq finite difference perturbation B field
   LLRAUG    =     F  two centre corrections for induced B field



--------------------------------------------------------------------------------------------------------


 Static calculation
 charge density and potential will be updated during run
 non-spin polarized calculation
 RMM-DIIS sequential band-by-band and
  variant of blocked Davidson during initial phase
 perform sub-space diagonalisation
    before iterative eigenvector-optimisation
 modified Broyden-mixing scheme, WC =      100.0
 initial mixing is a Kerker type mixing with AMIX =  0.4000 and BMIX =      1.0000
 Hartree-type preconditioning will be used
 using additional bands           29
 reciprocal scheme for non local part
 use partial core corrections
 calculate Harris-corrections to forces 
   (improved forces if not selfconsistent)
 use gradient corrections 
 use of overlap-Matrix (Vanderbilt PP)
 Gauss-broadening in eV      SIGMA  =   0.05


--------------------------------------------------------------------------------------------------------


  energy-cutoff  :      400.00
  volume of cell :     2620.42
      direct lattice vectors                 reciprocal lattice vectors
    12.300000191  0.000000000  0.000000000     0.081300812 -0.046939053  0.000000000
     6.150000804 10.652112223  0.000000000     0.000000000  0.093878095  0.000000000
     0.000000000  0.000000000 20.000000000     0.000000000  0.000000000  0.050000000

  length of vectors
    12.300000191 12.300000191 20.000000000     0.093878095  0.093878095  0.050000000


 
 old parameters found on file WAVECAR:
  energy-cutoff  :      400.00
  volume of cell :     2620.42
      direct lattice vectors                 reciprocal lattice vectors
    12.300000191  0.000000000  0.000000000     0.081300812 -0.046939053  0.000000000
     6.150000804 10.652112223  0.000000000     0.000000000  0.093878095  0.000000000
     0.000000000  0.000000000 20.000000000     0.000000000  0.000000000  0.050000000

  length of vectors

 
 k-points in units of 2pi/SCALE and weight: K-POINTS                                
   0.00000000  0.00000000  0.00000000       0.111
   0.02710027 -0.01564635  0.00000000       0.222
   0.00000000  0.03129270  0.00000000       0.222
   0.02710027  0.01564635  0.00000000       0.222
  -0.02710027  0.04693905  0.00000000       0.222
 
 k-points in reciprocal lattice and weights: K-POINTS                                
   0.00000000  0.00000000  0.00000000       0.111
   0.33333333  0.00000000  0.00000000       0.222
   0.00000000  0.33333333  0.00000000       0.222
   0.33333333  0.33333333  0.00000000       0.222
  -0.33333333  0.33333333  0.00000000       0.222
 
 position of ions in fractional coordinates (direct lattice) 
   0.00000000  0.00000000  0.41799748
   0.20000000  0.00000000  0.41799748
   0.40000000  0.00000000  0.41799748
   0.60000000  0.00000000  0.41799748
   0.80000000  0.00000000  0.41799748
   0.00000000  0.20000000  0.41799748
   0.20000000  0.20000000  0.41799748
   0.40000000  0.20000000  0.41799748
   0.60000000  0.20000000  0.41799748
   0.80000000  0.20000000  0.41799748
   0.00000000  0.40000000  0.41799748
   0.20000000  0.40000000  0.41799748
   0.40000000  0.40000000  0.41799748
   0.60000000  0.40000000  0.41799748
   0.80000000  0.40000000  0.41799748
   0.00000000  0.60000000  0.41799748
   0.20000000  0.60000000  0.41799748
   0.40000000  0.60000000  0.41799748
   0.60000000  0.60000000  0.41799748
   0.80000000  0.60000000  0.41799748
   0.00000000  0.80000000  0.41799748
   0.20000000  0.80000000  0.41799748
   0.40000000  0.80000000  0.41799748
   0.60000000  0.80000000  0.41799748
   0.80000000  0.80000000  0.41799748
   0.06666667  0.06666660  0.41800609
   0.26666667  0.06666660  0.41800609
   0.46666667  0.06585359  0.41800609
   0.66666667  0.06666660  0.41800609
   0.86666667  0.06666660  0.41800609
   0.06666667  0.26666660  0.41800609
   0.26666667  0.26666660  0.41800609
   0.46666667  0.26666660  0.41800609
   0.66666667  0.26666660  0.41800609
   0.86666667  0.26666660  0.41800609
   0.06666667  0.46666660  0.41800609
   0.26666667  0.46666660  0.41800609
   0.46666667  0.46666660  0.41800609
   0.66666667  0.46666660  0.41800609
   0.86666667  0.46666660  0.41800609
   0.06666667  0.66666660  0.41800609
   0.26666667  0.66666660  0.41800609
   0.46666667  0.66666660  0.41800609
   0.66666667  0.66666660  0.41800609
   0.86666667  0.66666660  0.41800609
   0.06666667  0.86666660  0.41800609
   0.26666667  0.86666660  0.41800609
   0.46666667  0.86666660  0.41800609
   0.66666667  0.86666660  0.41800609
   0.86666667  0.86666660  0.41800609
   0.40000000  0.40000000  0.46800609
 
 position of ions in cartesian coordinates  (Angst):
   0.00000000  0.00000000  8.35994958
   2.46000004  0.00000000  8.35994958
   4.92000008  0.00000000  8.35994958
   7.38000011  0.00000000  8.35994958
   9.84000015  0.00000000  8.35994958
   1.23000016  2.13042244  8.35994958
   3.69000020  2.13042244  8.35994958
   6.15000024  2.13042244  8.35994958
   8.61000028  2.13042244  8.35994958
  11.07000031  2.13042244  8.35994958
   2.46000032  4.26084489  8.35994958
   4.92000036  4.26084489  8.35994958
   7.38000040  4.26084489  8.35994958
   9.84000044  4.26084489  8.35994958
  12.30000047  4.26084489  8.35994958
   3.69000048  6.39126733  8.35994958
   6.15000052  6.39126733  8.35994958
   8.61000056  6.39126733  8.35994958
  11.07000060  6.39126733  8.35994958
  13.53000064  6.39126733  8.35994958
   4.92000064  8.52168978  8.35994958
   7.38000068  8.52168978  8.35994958
   9.84000072  8.52168978  8.35994958
  12.30000076  8.52168978  8.35994958
  14.76000080  8.52168978  8.35994958
   1.22999970  0.71014014  8.36012184
   3.68999974  0.71014014  8.36012184
   6.14499977  0.70147988  8.36012184
   8.60999981  0.71014014  8.36012184
  11.06999985  0.71014014  8.36012184
   2.45999986  2.84056258  8.36012184
   4.91999990  2.84056258  8.36012184
   7.37999994  2.84056258  8.36012184
   9.83999997  2.84056258  8.36012184
  12.30000001  2.84056258  8.36012184
   3.69000002  4.97098503  8.36012184
   6.15000006  4.97098503  8.36012184
   8.61000010  4.97098503  8.36012184
  11.07000013  4.97098503  8.36012184
  13.53000017  4.97098503  8.36012184
   4.92000018  7.10140747  8.36012184
   7.38000022  7.10140747  8.36012184
   9.84000026  7.10140747  8.36012184
  12.30000030  7.10140747  8.36012184
  14.76000033  7.10140747  8.36012184
   6.15000034  9.23182991  8.36012184
   8.61000038  9.23182991  8.36012184
  11.07000042  9.23182991  8.36012184
  13.53000046  9.23182991  8.36012184
  15.99000049  9.23182991  8.36012184
   7.38000040  4.26084489  9.36012184
 


--------------------------------------------------------------------------------------------------------


 k-point  1 :   0.0000 0.0000 0.0000  plane waves:   47639
 k-point  2 :   0.3333 0.0000 0.0000  plane waves:   47601
 k-point  3 :   0.0000 0.3333 0.0000  plane waves:   47601
 k-point  4 :   0.3333 0.3333 0.0000  plane waves:   47601
 k-point  5 :  -0.3333 0.3333 0.0000  plane waves:   47598

 maximum and minimum number of plane-waves per node :      5975     5928

 maximum number of plane-waves:     47639
 maximum index in each direction: 
   IXMAX=   20   IYMAX=   20   IZMAX=   32
   IXMIN=  -20   IYMIN=  -20   IZMIN=  -32


 parallel 3D FFT for wavefunctions:
    minimum data exchange during FFTs selected (reduces bandwidth)
 parallel 3D FFT for charge:
    minimum data exchange during FFTs selected (reduces bandwidth)


 total amount of memory used by VASP MPI-rank0    90113. kBytes
=======================================================================

   base      :      30000. kBytes
   nonl-proj :       8674. kBytes
   fftplans  :      26248. kBytes
   grid      :      14579. kBytes
   one-center:         21. kBytes
   wavefun   :      10591. kBytes
 
     INWAV:  cpu time    0.8120: real time    0.8126
 Broyden mixing: mesh for mixing (old mesh)
   NGX = 41   NGY = 41   NGZ = 65
  (NGX  =160   NGY  =160   NGZ  =280)
  gives a total of 109265 points

 initial charge density was supplied:
 number of electron     206.0000000 magnetization 
 keeping initial charge density in first step


--------------------------------------------------------------------------------------------------------


 Maximum index for augmentation-charges         1119 (set IRDMAX)


--------------------------------------------------------------------------------------------------------


 First call to EWALD:  gamma=   0.129
 Maximum number of real-space cells 3x 3x 2
 Maximum number of reciprocal cells 3x 3x 4

    FEWALD:  cpu time    0.0019: real time    0.0032


--------------------------------------- Iteration      1(   1)  ---------------------------------------


    POTLOK:  cpu time    0.1080: real time    0.1093
    SETDIJ:  cpu time    0.0834: real time    0.0847
     EDDAV:  cpu time    4.1561: real time    4.1591
       DOS:  cpu time    0.0008: real time    0.0008
    CHARGE:  cpu time    0.3913: real time    0.3914
    MIXING:  cpu time    0.0056: real time    0.0059
    --------------------------------------------
      LOOP:  cpu time    4.7454: real time    4.7513

 eigenvalue-minimisations  :  1356
 total energy-change (2. order) :-0.4532902E+03  (-0.2841223E+02)
 number of electron     206.0000000 magnetization 
 augmentation part        5.5096122 magnetization 

 Broyden mixing:
  rms(total) = 0.49652E-01    rms(broyden)= 0.49622E-01
  rms(prec ) = 0.51073E-01
  weight for this iteration     100.00

 Free energy of the ion-electron system (eV)
  ---------------------------------------------------
  alpha Z        PSCENC =        82.54348252
  Ewald energy   TEWEN  =     34516.37495198
  -Hartree energ DENC   =    -41034.67721123
  -exchange      EXHF   =         0.00000000
  -V(xc)+E(xc)   XCENC  =       721.37998937
  PAW double counting   =     22781.19595426   -22817.52509957
  entropy T*S    EENTRO =        -0.00051122
  eigenvalues    EBANDS =     -2491.20612607
  atomic energy  EATOM  =      7788.62438962
  Solvation  Ediel_sol  =         0.00000000
  ---------------------------------------------------
  free energy    TOTEN  =      -453.29018034 eV

  energy without entropy =     -453.28966912  energy(sigma->0) =     -453.28992473


--------------------------------------------------------------------------------------------------------




--------------------------------------- Iteration      1(   2)  ---------------------------------------


    POTLOK:  cpu time    0.0990: real time    0.1013
    SETDIJ:  cpu time    0.0809: real time    0.0823
    EDDIAG:  cpu time    0.8869: real time    0.8874
  RMM-DIIS:  cpu time    3.7344: real time    3.7363
    ORTHCH:  cpu time    0.0409: real time    0.0409
       DOS:  cpu time    0.0003: real time    0.0003
    CHARGE:  cpu time    0.3896: real time    0.3897
    MIXING:  cpu time    0.0051: real time    0.0052
    --------------------------------------------
      LOOP:  cpu time    5.2372: real time    5.2435

 eigenvalue-minimisations  :  1416
 total energy-change (2. order) :-0.9877445E+00  (-0.9901320E+00)
 number of electron     206.0000000 magnetization 
 augmentation part        5.5408139 magnetization 

 Broyden mixing:
  rms(total) = 0.19946E-01    rms(broyden)= 0.19892E-01
  rms(prec ) = 0.21228E-01
  weight for this iteration     100.00

 eigenvalues of (default mixing * dielectric matrix)
  average eigenvalue GAMMA=   0.7452
  0.7452

 Free energy of the ion-electron system (eV)
  ---------------------------------------------------
  alpha Z        PSCENC =        82.54348252
  Ewald energy   TEWEN  =     34516.37495198
  -Hartree energ DENC   =    -41032.17866037
  -exchange      EXHF   =         0.00000000
  -V(xc)+E(xc)   XCENC  =       721.27370890
  PAW double counting   =     22842.03869267   -22878.31698621
  entropy T*S    EENTRO =        -0.00009920
  eigenvalues    EBANDS =     -2494.63740473
  atomic energy  EATOM  =      7788.62438962
  Solvation  Ediel_sol  =         0.00000000
  ---------------------------------------------------
  free energy    TOTEN  =      -454.27792483 eV

  energy without entropy =     -454.27782564  energy(sigma->0) =     -454.27787523


--------------------------------------------------------------------------------------------------------




--------------------------------------- Iteration      1(   3)  ---------------------------------------


    POTLOK:  cpu time    0.0991: real time    0.1019
    SETDIJ:  cpu time    0.0797: real time    0.0815
    EDDIAG:  cpu time    0.8866: real time    0.8875
  RMM-DIIS:  cpu time    4.1125: real time    4.1151
    ORTHCH:  cpu time    0.0415: real time    0.0415
       DOS:  cpu time    0.0004: real time    0.0004
    CHARGE:  cpu time    0.3905: real time    0.3905
    MIXING:  cpu time    0.0042: real time    0.0042
    --------------------------------------------
      LOOP:  cpu time    5.6144: real time    5.6224

 eigenvalue-minimisations  :  1584
 total energy-change (2. order) :-0.5235478E-01  (-0.5855802E-01)
 number of electron     206.0000000 magnetization 
 augmentation part        5.5434812 magnetization 

 Broyden mixing:
  rms(total) = 0.15318E-01    rms(broyden)= 0.15305E-01
  rms(prec ) = 0.15876E-01
  weight for this iteration     100.00

 eigenvalues of (default mixing * dielectric matrix)
  average eigenvalue GAMMA=   0.6919
  0.6919  0.6919

 Free energy of the ion-electron system (eV)
  ---------------------------------------------------
  alpha Z        PSCENC =        82.54348252
  Ewald energy   TEWEN  =     34516.37495198
  -Hartree energ DENC   =    -41032.86192126
  -exchange      EXHF   =         0.00000000
  -V(xc)+E(xc)   XCENC  =       721.30573599
  PAW double counting   =     22830.73162204   -22867.02453778
  entropy T*S    EENTRO =        -0.00012621
  eigenvalues    EBANDS =     -2494.02387650
  atomic energy  EATOM  =      7788.62438962
  Solvation  Ediel_sol  =         0.00000000
  ---------------------------------------------------
  free energy    TOTEN  =      -454.33027961 eV

  energy without entropy =     -454.33015340  energy(sigma->0) =     -454.33021651


--------------------------------------------------------------------------------------------------------




--------------------------------------- Iteration      1(   4)  ---------------------------------------


    POTLOK:  cpu time    0.0990: real time    0.0999
    SETDIJ:  cpu time    0.0803: real time    0.0817
    EDDIAG:  cpu time    0.8795: real time    0.8800
  RMM-DIIS:  cpu time    4.1465: real time    4.1482
    ORTHCH:  cpu time    0.0415: real time    0.0415
       DOS:  cpu time    0.0003: real time    0.0003
    CHARGE:  cpu time    0.3887: real time    0.3891
    MIXING:  cpu time    0.0048: real time    0.0048
    --------------------------------------------
      LOOP:  cpu time    5.6409: real time    5.6457

 eigenvalue-minimisations  :  1585
 total energy-change (2. order) :-0.3864851E-02  (-0.4060068E-02)
 number of electron     206.0000000 magnetization 
 augmentation part        5.5459967 magnetization 

 Broyden mixing:
  rms(total) = 0.15084E-01    rms(broyden)= 0.15082E-01
  rms(prec ) = 0.15557E-01
  weight for this iteration     100.00

 eigenvalues of (default mixing * dielectric matrix)
  average eigenvalue GAMMA=   0.9891
  1.2097  1.2097  0.5479

 Free energy of the ion-electron system (eV)
  ---------------------------------------------------
  alpha Z        PSCENC =        82.54348252
  Ewald energy   TEWEN  =     34516.37495198
  -Hartree energ DENC   =    -41033.20778780
  -exchange      EXHF   =         0.00000000
  -V(xc)+E(xc)   XCENC  =       721.32125362
  PAW double counting   =     22821.90843272   -22858.20915568
  entropy T*S    EENTRO =        -0.00010957
  eigenvalues    EBANDS =     -2493.68960187
  atomic energy  EATOM  =      7788.62438962
  Solvation  Ediel_sol  =         0.00000000
  ---------------------------------------------------
  free energy    TOTEN  =      -454.33414446 eV

  energy without entropy =     -454.33403489  energy(sigma->0) =     -454.33408967


--------------------------------------------------------------------------------------------------------




--------------------------------------- Iteration      1(   5)  ---------------------------------------


    POTLOK:  cpu time    0.1004: real time    0.1008
    SETDIJ:  cpu time    0.0798: real time    0.0817
    EDDIAG:  cpu time    0.8848: real time    0.8861
  RMM-DIIS:  cpu time    3.9497: real time    3.9515
    ORTHCH:  cpu time    0.0414: real time    0.0414
       DOS:  cpu time    0.0003: real time    0.0003
    CHARGE:  cpu time    0.3903: real time    0.3904
    MIXING:  cpu time    0.0048: real time    0.0048
    --------------------------------------------
      LOOP:  cpu time    5.4515: real time    5.4570

 eigenvalue-minimisations  :  1515
 total energy-change (2. order) :-0.1039101E-03  (-0.3135906E-03)
 number of electron     206.0000000 magnetization 
 augmentation part        5.5449652 magnetization 

 Broyden mixing:
  rms(total) = 0.60058E-02    rms(broyden)= 0.60049E-02
  rms(prec ) = 0.61617E-02
  weight for this iteration     100.00

 eigenvalues of (default mixing * dielectric matrix)
  average eigenvalue GAMMA=   1.1614
  1.5224  1.5224  0.5634  1.0375

 Free energy of the ion-electron system (eV)
  ---------------------------------------------------
  alpha Z        PSCENC =        82.54348252
  Ewald energy   TEWEN  =     34516.37495198
  -Hartree energ DENC   =    -41034.11909512
  -exchange      EXHF   =         0.00000000
  -V(xc)+E(xc)   XCENC  =       721.35944547
  PAW double counting   =     22794.96122167   -22831.28167986
  entropy T*S    EENTRO =        -0.00011348
  eigenvalues    EBANDS =     -2492.79685117
  atomic energy  EATOM  =      7788.62438962
  Solvation  Ediel_sol  =         0.00000000
  ---------------------------------------------------
  free energy    TOTEN  =      -454.33424837 eV

  energy without entropy =     -454.33413489  energy(sigma->0) =     -454.33419163


--------------------------------------------------------------------------------------------------------




--------------------------------------- Iteration      1(   6)  ---------------------------------------


    POTLOK:  cpu time    0.1009: real time    0.1024
    SETDIJ:  cpu time    0.0801: real time    0.0815
    EDDIAG:  cpu time    0.8859: real time    0.8873
  RMM-DIIS:  cpu time    3.9934: real time    3.9953
    ORTHCH:  cpu time    0.0412: real time    0.0412
       DOS:  cpu time    0.0004: real time    0.0004
    CHARGE:  cpu time    0.3896: real time    0.3898
    MIXING:  cpu time    0.0041: real time    0.0041
    --------------------------------------------
      LOOP:  cpu time    5.4955: real time    5.5020

 eigenvalue-minimisations  :  1538
 total energy-change (2. order) :-0.2638125E-04  (-0.4743395E-04)
 number of electron     206.0000000 magnetization 
 augmentation part        5.5443729 magnetization 

 Broyden mixing:
  rms(total) = 0.13922E-02    rms(broyden)= 0.13905E-02
  rms(prec ) = 0.14471E-02
  weight for this iteration     100.00

 eigenvalues of (default mixing * dielectric matrix)
  average eigenvalue GAMMA=   1.2169
  2.1346  1.2198  1.2198  0.9484  0.5620

 Free energy of the ion-electron system (eV)
  ---------------------------------------------------
  alpha Z        PSCENC =        82.54348252
  Ewald energy   TEWEN  =     34516.37495198
  -Hartree energ DENC   =    -41034.75730765
  -exchange      EXHF   =         0.00000000
  -V(xc)+E(xc)   XCENC  =       721.38602772
  PAW double counting   =     22775.94494236   -22812.27824080
  entropy T*S    EENTRO =        -0.00011465
  eigenvalues    EBANDS =     -2492.17240585
  atomic energy  EATOM  =      7788.62438962
  Solvation  Ediel_sol  =         0.00000000
  ---------------------------------------------------
  free energy    TOTEN  =      -454.33427475 eV

  energy without entropy =     -454.33416010  energy(sigma->0) =     -454.33421743


--------------------------------------------------------------------------------------------------------




--------------------------------------- Iteration      1(   7)  ---------------------------------------


    POTLOK:  cpu time    0.1005: real time    0.1006
    SETDIJ:  cpu time    0.0795: real time    0.0795
    EDDIAG:  cpu time    0.8980: real time    0.8985
  RMM-DIIS:  cpu time    2.9278: real time    2.9291
    ORTHCH:  cpu time    0.0418: real time    0.0418
       DOS:  cpu time    0.0004: real time    0.0004
    --------------------------------------------
      LOOP:  cpu time    4.0480: real time    4.0498

 eigenvalue-minimisations  :  1029
 total energy-change (2. order) :-0.7269833E-05  (-0.2124363E-05)
 number of electron     206.0000000 magnetization 
 augmentation part        5.5443729 magnetization 

 Free energy of the ion-electron system (eV)
  ---------------------------------------------------
  alpha Z        PSCENC =        82.54348252
  Ewald energy   TEWEN  =     34516.37495198
  -Hartree energ DENC   =    -41034.76848211
  -exchange      EXHF   =         0.00000000
  -V(xc)+E(xc)   XCENC  =       721.38600850
  PAW double counting   =     22777.13086386   -22813.46348532
  entropy T*S    EENTRO =        -0.00011560
  eigenvalues    EBANDS =     -2492.16189546
  atomic energy  EATOM  =      7788.62438962
  Solvation  Ediel_sol  =         0.00000000
  ---------------------------------------------------
  free energy    TOTEN  =      -454.33428202 eV

  energy without entropy =     -454.33416642  energy(sigma->0) =     -454.33422422


--------------------------------------------------------------------------------------------------------




 average (electrostatic) potential at core
  the test charge radii are     0.6991  0.7215
  (the norm of the test charge is              1.0000)
       1 -58.2605       2 -58.2611       3 -58.2017       4 -58.0601       5 -58.2053
       6 -58.2606       7 -58.2745       8 -58.1303       9 -58.1338      10 -58.2763
      11 -58.2021      12 -58.1294      13 -60.6846      14 -58.1330      15 -58.2036
      16 -58.0565      17 -58.1315      18 -58.1331      19 -58.0578      20 -58.0647
      21 -58.2032      22 -58.2754      23 -58.2024      24 -58.0662      25 -58.0636
      26 -58.3820      27 -58.2940      28 -58.2204      29 -58.2248      30 -58.2928
      31 -58.2920      32 -58.3113      33 -58.8078      34 -58.3139      35 -58.2929
      36 -58.2202      37 -58.8100      38 -58.8118      39 -58.2218      40 -58.2224
      41 -58.2207      42 -58.3142      43 -58.2205      44 -58.1641      45 -58.1631
      46 -58.2926      47 -58.2925      48 -58.2223      49 -58.1609      50 -58.2229
      51 -81.5703
 
 
 
 E-fermi :  -3.0166     XC(G=0):  -2.2107     alpha+bet : -1.9409


 k-point     1 :       0.0000    0.0000    0.0000
  band No.  band energies     occupation 
      1     -31.7371      2.00000
      2     -22.2716      2.00000
      3     -21.5027      2.00000
      4     -21.4995      2.00000
      5     -21.3983      2.00000
      6     -21.3942      2.00000
      7     -21.3941      2.00000
      8     -20.8708      2.00000
      9     -19.8770      2.00000
     10     -19.8758      2.00000
     11     -19.5504      2.00000
     12     -19.5472      2.00000
     13     -19.5400      2.00000
     14     -19.1932      2.00000
     15     -18.9054      2.00000
     16     -18.9012      2.00000
     17     -18.6439      2.00000
     18     -18.6421      2.00000
     19     -18.6381      2.00000
     20     -17.8835      2.00000
     21     -17.0233      2.00000
     22     -17.0176      2.00000
     23     -16.4739      2.00000
     24     -16.4622      2.00000
     25     -16.4560      2.00000
     26     -16.0492      2.00000
     27     -15.9984      2.00000
     28     -15.9931      2.00000
     29     -15.5016      2.00000
     30     -15.4956      2.00000
     31     -15.4934      2.00000
     32     -15.0870      2.00000
     33     -14.6312      2.00000
     34     -14.6278      2.00000
     35     -14.1502      2.00000
     36     -14.1480      2.00000
     37     -14.1406      2.00000
     38     -13.9682      2.00000
     39     -12.9908      2.00000
     40     -12.9897      2.00000
     41     -12.0297      2.00000
     42     -11.7654      2.00000
     43     -11.7629      2.00000
     44     -11.7609      2.00000
     45     -11.6937      2.00000
     46     -11.6873      2.00000
     47     -11.6554      2.00000
     48     -11.6521      2.00000
     49     -11.6488      2.00000
     50     -11.6450      2.00000
     51     -10.8051      2.00000
     52     -10.8017      2.00000
     53     -10.4254      2.00000
     54     -10.3348      2.00000
     55     -10.2909      2.00000
     56     -10.2839      2.00000
     57     -10.2684      2.00000
     58     -10.0770      2.00000
     59      -9.6882      2.00000
     60      -9.6828      2.00000
     61      -9.3274      2.00000
     62      -9.3246      2.00000
     63      -9.3007      2.00000
     64      -9.2809      2.00000
     65      -9.2784      2.00000
     66      -9.0425      2.00000
     67      -9.0046      2.00000
     68      -9.0032      2.00000
     69      -8.9575      2.00000
     70      -8.9457      2.00000
     71      -8.9412      2.00000
     72      -8.9400      2.00000
     73      -8.9212      2.00000
     74      -8.9131      2.00000
     75      -8.8853      2.00000
     76      -8.4327      2.00000
     77      -7.8025      2.00000
     78      -7.7977      2.00000
     79      -7.3259      2.00000
     80      -7.3219      2.00000
     81      -7.3101      2.00000
     82      -7.3061      2.00000
     83      -7.2999      2.00000
     84      -7.2932      2.00000
     85      -7.1627      2.00000
     86      -7.1597      2.00000
     87      -7.1548      2.00000
     88      -6.7534      2.00000
     89      -6.5107      2.00000
     90      -6.5076      2.00000
     91      -6.2666      2.00000
     92      -6.2469      2.00000
     93      -6.2426      2.00000
     94      -5.9281      2.00000
     95      -5.9170      2.00000
     96      -5.1956      2.00000
     97      -4.7661      2.00000
     98      -4.7609      2.00000
     99      -4.2702      2.00000
    100      -4.2679      2.00000
    101      -4.2615      2.00000
    102      -3.2148      2.00000
    103      -3.2131      2.00000
    104      -2.9157      0.00434
    105      -1.4681      0.00000
    106      -1.4579      0.00000
    107      -1.4536      0.00000
    108      -0.9925      0.00000
    109      -0.9877      0.00000
    110      -0.5426      0.00000
    111       0.4153      0.00000
    112       0.4209      0.00000
    113       0.4253      0.00000
    114       0.5614      0.00000
    115       0.8416      0.00000
    116       0.8470      0.00000
    117       1.2943      0.00000
    118       1.3396      0.00000
    119       1.6810      0.00000
    120       1.8001      0.00000
    121       1.8005      0.00000
    122       1.8024      0.00000
    123       1.8266      0.00000
    124       1.8272      0.00000
    125       2.0334      0.00000
    126       2.1739      0.00000
    127       2.1778      0.00000
    128       2.1847      0.00000
    129       2.3465      0.00000
    130       2.3474      0.00000
    131       2.6288      0.00000
    132       2.6506      0.00000

 k-point     2 :       0.3333    0.0000    0.0000
  band No.  band energies     occupation 
      1     -31.7371      2.00000
      2     -22.1894      2.00000
      3     -21.8707      2.00000
      4     -21.6592      2.00000
      5     -21.4541      2.00000
      6     -21.0329      2.00000
      7     -20.8979      2.00000
      8     -20.7278      2.00000
      9     -20.4184      2.00000
     10     -20.1618      2.00000
     11     -19.7846      2.00000
     12     -19.7045      2.00000
     13     -19.3260      2.00000
     14     -19.2437      2.00000
     15     -19.0596      2.00000
     16     -18.5925      2.00000
     17     -18.4586      2.00000
     18     -18.1227      2.00000
     19     -18.0614      2.00000
     20     -17.5902      2.00000
     21     -17.4980      2.00000
     22     -17.3010      2.00000
     23     -17.2770      2.00000
     24     -16.8513      2.00000
     25     -16.6533      2.00000
     26     -16.1755      2.00000
     27     -15.9780      2.00000
     28     -15.8462      2.00000
     29     -15.2990      2.00000
     30     -15.1692      2.00000
     31     -15.1352      2.00000
     32     -14.8864      2.00000
     33     -14.7817      2.00000
     34     -14.4770      2.00000
     35     -14.4549      2.00000
     36     -13.7691      2.00000
     37     -13.7590      2.00000
     38     -13.1962      2.00000
     39     -13.0881      2.00000
     40     -12.9327      2.00000
     41     -12.9037      2.00000
     42     -12.5875      2.00000
     43     -12.5483      2.00000
     44     -12.3919      2.00000
     45     -12.0193      2.00000
     46     -11.6656      2.00000
     47     -11.4457      2.00000
     48     -11.2957      2.00000
     49     -11.1195      2.00000
     50     -10.9147      2.00000
     51     -10.8497      2.00000
     52     -10.5814      2.00000
     53     -10.5330      2.00000
     54     -10.2855      2.00000
     55     -10.2374      2.00000
     56     -10.1630      2.00000
     57     -10.0511      2.00000
     58      -9.8546      2.00000
     59      -9.8193      2.00000
     60      -9.6519      2.00000
     61      -9.6060      2.00000
     62      -9.5597      2.00000
     63      -9.5274      2.00000
     64      -9.3695      2.00000
     65      -9.3400      2.00000
     66      -9.2618      2.00000
     67      -9.1747      2.00000
     68      -9.1001      2.00000
     69      -9.0819      2.00000
     70      -8.8631      2.00000
     71      -8.7110      2.00000
     72      -8.6655      2.00000
     73      -8.5035      2.00000
     74      -8.4036      2.00000
     75      -8.2846      2.00000
     76      -8.1323      2.00000
     77      -8.0947      2.00000
     78      -8.0643      2.00000
     79      -7.9713      2.00000
     80      -7.8075      2.00000
     81      -7.6214      2.00000
     82      -7.3577      2.00000
     83      -7.3374      2.00000
     84      -7.2654      2.00000
     85      -7.1992      2.00000
     86      -6.9202      2.00000
     87      -6.8736      2.00000
     88      -6.6936      2.00000
     89      -6.5902      2.00000
     90      -6.3485      2.00000
     91      -6.1856      2.00000
     92      -6.0725      2.00000
     93      -5.9225      2.00000
     94      -5.7398      2.00000
     95      -5.6390      2.00000
     96      -5.3223      2.00000
     97      -5.1145      2.00000
     98      -4.9709      2.00000
     99      -4.9230      2.00000
    100      -4.2702      2.00000
    101      -4.1644      2.00000
    102      -3.3357      2.00000
    103      -3.1362      1.99928
    104      -2.8033      0.00000
    105      -1.5939      0.00000
    106      -1.4233      0.00000
    107      -0.8406      0.00000
    108      -0.8212      0.00000
    109      -0.7053      0.00000
    110      -0.6660      0.00000
    111      -0.1293      0.00000
    112      -0.0052      0.00000
    113       0.2950      0.00000
    114       0.7037      0.00000
    115       0.7275      0.00000
    116       1.0987      0.00000
    117       1.1741      0.00000
    118       1.3670      0.00000
    119       1.4624      0.00000
    120       1.5375      0.00000
    121       1.5703      0.00000
    122       1.6375      0.00000
    123       1.8299      0.00000
    124       1.9113      0.00000
    125       2.0438      0.00000
    126       2.2192      0.00000
    127       2.2707      0.00000
    128       2.3278      0.00000
    129       2.3401      0.00000
    130       2.3957      0.00000
    131       2.4573      0.00000
    132       2.7956      0.00000

 k-point     3 :       0.0000    0.3333    0.0000
  band No.  band energies     occupation 
      1     -31.7371      2.00000
      2     -22.1896      2.00000
      3     -21.8690      2.00000
      4     -21.6619      2.00000
      5     -21.4530      2.00000
      6     -21.0361      2.00000
      7     -20.8940      2.00000
      8     -20.7261      2.00000
      9     -20.4207      2.00000
     10     -20.1628      2.00000
     11     -19.7878      2.00000
     12     -19.6986      2.00000
     13     -19.3268      2.00000
     14     -19.2457      2.00000
     15     -19.0597      2.00000
     16     -18.5926      2.00000
     17     -18.4577      2.00000
     18     -18.1201      2.00000
     19     -18.0624      2.00000
     20     -17.5895      2.00000
     21     -17.5003      2.00000
     22     -17.3006      2.00000
     23     -17.2774      2.00000
     24     -16.8519      2.00000
     25     -16.6537      2.00000
     26     -16.1744      2.00000
     27     -15.9759      2.00000
     28     -15.8480      2.00000
     29     -15.2974      2.00000
     30     -15.1706      2.00000
     31     -15.1333      2.00000
     32     -14.8885      2.00000
     33     -14.7837      2.00000
     34     -14.4758      2.00000
     35     -14.4556      2.00000
     36     -13.7681      2.00000
     37     -13.7587      2.00000
     38     -13.1962      2.00000
     39     -13.0886      2.00000
     40     -12.9335      2.00000
     41     -12.9028      2.00000
     42     -12.5861      2.00000
     43     -12.5480      2.00000
     44     -12.3908      2.00000
     45     -12.0203      2.00000
     46     -11.6621      2.00000
     47     -11.4487      2.00000
     48     -11.3015      2.00000
     49     -11.1220      2.00000
     50     -10.9105      2.00000
     51     -10.8501      2.00000
     52     -10.5863      2.00000
     53     -10.5290      2.00000
     54     -10.2839      2.00000
     55     -10.2375      2.00000
     56     -10.1614      2.00000
     57     -10.0487      2.00000
     58      -9.8535      2.00000
     59      -9.8203      2.00000
     60      -9.6554      2.00000
     61      -9.6049      2.00000
     62      -9.5594      2.00000
     63      -9.5241      2.00000
     64      -9.3723      2.00000
     65      -9.3391      2.00000
     66      -9.2587      2.00000
     67      -9.1741      2.00000
     68      -9.1006      2.00000
     69      -9.0813      2.00000
     70      -8.8659      2.00000
     71      -8.7147      2.00000
     72      -8.6629      2.00000
     73      -8.5025      2.00000
     74      -8.4048      2.00000
     75      -8.2862      2.00000
     76      -8.1353      2.00000
     77      -8.0959      2.00000
     78      -8.0682      2.00000
     79      -7.9729      2.00000
     80      -7.8080      2.00000
     81      -7.6140      2.00000
     82      -7.3604      2.00000
     83      -7.3342      2.00000
     84      -7.2630      2.00000
     85      -7.1953      2.00000
     86      -6.9203      2.00000
     87      -6.8741      2.00000
     88      -6.6953      2.00000
     89      -6.5901      2.00000
     90      -6.3445      2.00000
     91      -6.1886      2.00000
     92      -6.0755      2.00000
     93      -5.9222      2.00000
     94      -5.7372      2.00000
     95      -5.6398      2.00000
     96      -5.3227      2.00000
     97      -5.1171      2.00000
     98      -4.9708      2.00000
     99      -4.9237      2.00000
    100      -4.2701      2.00000
    101      -4.1626      2.00000
    102      -3.3341      2.00000
    103      -3.1358      1.99925
    104      -2.8044      0.00000
    105      -1.5979      0.00000
    106      -1.4242      0.00000
    107      -0.8396      0.00000
    108      -0.8190      0.00000
    109      -0.7043      0.00000
    110      -0.6636      0.00000
    111      -0.1274      0.00000
    112      -0.0086      0.00000
    113       0.2940      0.00000
    114       0.7036      0.00000
    115       0.7285      0.00000
    116       1.1003      0.00000
    117       1.1765      0.00000
    118       1.3629      0.00000
    119       1.4633      0.00000
    120       1.5368      0.00000
    121       1.5693      0.00000
    122       1.6368      0.00000
    123       1.8308      0.00000
    124       1.9127      0.00000
    125       2.0407      0.00000
    126       2.2292      0.00000
    127       2.2744      0.00000
    128       2.3359      0.00000
    129       2.4266      0.00000
    130       2.7397      0.00000
    131       3.2542      0.00000
    132       3.6119      0.00000

 k-point     4 :       0.3333    0.3333    0.0000
  band No.  band energies     occupation 
      1     -31.7371      2.00000
      2     -22.1896      2.00000
      3     -21.8691      2.00000
      4     -21.6613      2.00000
      5     -21.4532      2.00000
      6     -21.0356      2.00000
      7     -20.8949      2.00000
      8     -20.7266      2.00000
      9     -20.4210      2.00000
     10     -20.1612      2.00000
     11     -19.7880      2.00000
     12     -19.6977      2.00000
     13     -19.3285      2.00000
     14     -19.2426      2.00000
     15     -19.0624      2.00000
     16     -18.5925      2.00000
     17     -18.4594      2.00000
     18     -18.1209      2.00000
     19     -18.0617      2.00000
     20     -17.5903      2.00000
     21     -17.4941      2.00000
     22     -17.2999      2.00000
     23     -17.2767      2.00000
     24     -16.8540      2.00000
     25     -16.6575      2.00000
     26     -16.1762      2.00000
     27     -15.9778      2.00000
     28     -15.8475      2.00000
     29     -15.2962      2.00000
     30     -15.1687      2.00000
     31     -15.1321      2.00000
     32     -14.8838      2.00000
     33     -14.7798      2.00000
     34     -14.4787      2.00000
     35     -14.4598      2.00000
     36     -13.7681      2.00000
     37     -13.7589      2.00000
     38     -13.1948      2.00000
     39     -13.0907      2.00000
     40     -12.9358      2.00000
     41     -12.9047      2.00000
     42     -12.5866      2.00000
     43     -12.5503      2.00000
     44     -12.3869      2.00000
     45     -12.0203      2.00000
     46     -11.6636      2.00000
     47     -11.4460      2.00000
     48     -11.2953      2.00000
     49     -11.1211      2.00000
     50     -10.9133      2.00000
     51     -10.8500      2.00000
     52     -10.5842      2.00000
     53     -10.5313      2.00000
     54     -10.2855      2.00000
     55     -10.2375      2.00000
     56     -10.1602      2.00000
     57     -10.0476      2.00000
     58      -9.8533      2.00000
     59      -9.8240      2.00000
     60      -9.6512      2.00000
     61      -9.6077      2.00000
     62      -9.5623      2.00000
     63      -9.5274      2.00000
     64      -9.3722      2.00000
     65      -9.3405      2.00000
     66      -9.2593      2.00000
     67      -9.1762      2.00000
     68      -9.0985      2.00000
     69      -9.0820      2.00000
     70      -8.8653      2.00000
     71      -8.7124      2.00000
     72      -8.6636      2.00000
     73      -8.5029      2.00000
     74      -8.3992      2.00000
     75      -8.2843      2.00000
     76      -8.1332      2.00000
     77      -8.0897      2.00000
     78      -8.0625      2.00000
     79      -7.9730      2.00000
     80      -7.8070      2.00000
     81      -7.6237      2.00000
     82      -7.3616      2.00000
     83      -7.3363      2.00000
     84      -7.2662      2.00000
     85      -7.2009      2.00000
     86      -6.9228      2.00000
     87      -6.8731      2.00000
     88      -6.6890      2.00000
     89      -6.5926      2.00000
     90      -6.3529      2.00000
     91      -6.1825      2.00000
     92      -6.0713      2.00000
     93      -5.9238      2.00000
     94      -5.7390      2.00000
     95      -5.6388      2.00000
     96      -5.3216      2.00000
     97      -5.1115      2.00000
     98      -4.9697      2.00000
     99      -4.9216      2.00000
    100      -4.2719      2.00000
    101      -4.1682      2.00000
    102      -3.3356      2.00000
    103      -3.1364      1.99930
    104      -2.8037      0.00000
    105      -1.5904      0.00000
    106      -1.4198      0.00000
    107      -0.8419      0.00000
    108      -0.8191      0.00000
    109      -0.7070      0.00000
    110      -0.6729      0.00000
    111      -0.1304      0.00000
    112      -0.0039      0.00000
    113       0.2971      0.00000
    114       0.7039      0.00000
    115       0.7251      0.00000
    116       1.1012      0.00000
    117       1.1776      0.00000
    118       1.3664      0.00000
    119       1.4643      0.00000
    120       1.5618      0.00000
    121       1.5796      0.00000
    122       1.7516      0.00000
    123       1.8312      0.00000
    124       2.1785      0.00000
    125       2.3354      0.00000
    126       2.3967      0.00000
    127       2.6150      0.00000
    128       2.7871      0.00000
    129       2.8460      0.00000
    130       3.2034      0.00000
    131       3.5949      0.00000
    132       4.1758      0.00000

 k-point     5 :      -0.3333    0.3333    0.0000
  band No.  band energies     occupation 
      1     -31.7372      2.00000
      2     -22.0810      2.00000
      3     -22.0083      2.00000
      4     -21.8006      2.00000
      5     -21.1700      2.00000
      6     -21.1498      2.00000
      7     -20.8682      2.00000
      8     -20.4105      2.00000
      9     -20.3391      2.00000
     10     -20.1731      2.00000
     11     -20.1508      2.00000
     12     -20.1432      2.00000
     13     -19.5679      2.00000
     14     -18.8266      2.00000
     15     -18.6742      2.00000
     16     -18.3724      2.00000
     17     -18.3488      2.00000
     18     -18.3366      2.00000
     19     -17.9265      2.00000
     20     -17.8045      2.00000
     21     -17.6005      2.00000
     22     -17.2630      2.00000
     23     -17.1528      2.00000
     24     -17.1195      2.00000
     25     -16.5420      2.00000
     26     -16.4356      2.00000
     27     -16.2830      2.00000
     28     -15.8077      2.00000
     29     -15.6300      2.00000
     30     -15.1744      2.00000
     31     -14.9683      2.00000
     32     -14.6531      2.00000
     33     -13.9618      2.00000
     34     -13.9395      2.00000
     35     -13.9248      2.00000
     36     -13.8759      2.00000
     37     -13.8603      2.00000
     38     -13.7936      2.00000
     39     -13.6738      2.00000
     40     -13.4948      2.00000
     41     -13.0354      2.00000
     42     -12.4757      2.00000
     43     -12.2556      2.00000
     44     -12.0693      2.00000
     45     -11.8227      2.00000
     46     -11.7709      2.00000
     47     -11.5638      2.00000
     48     -11.5454      2.00000
     49     -11.5221      2.00000
     50     -10.9328      2.00000
     51     -10.8125      2.00000
     52     -10.5297      2.00000
     53     -10.2080      2.00000
     54     -10.2039      2.00000
     55     -10.1959      2.00000
     56     -10.0953      2.00000
     57     -10.0508      2.00000
     58     -10.0227      2.00000
     59      -9.9004      2.00000
     60      -9.7519      2.00000
     61      -9.7482      2.00000
     62      -9.5620      2.00000
     63      -9.4425      2.00000
     64      -9.4053      2.00000
     65      -9.1997      2.00000
     66      -9.0445      2.00000
     67      -9.0341      2.00000
     68      -8.9009      2.00000
     69      -8.8868      2.00000
     70      -8.6897      2.00000
     71      -8.6372      2.00000
     72      -8.6325      2.00000
     73      -8.6204      2.00000
     74      -8.5839      2.00000
     75      -8.3734      2.00000
     76      -8.2515      2.00000
     77      -8.1630      2.00000
     78      -8.0339      2.00000
     79      -7.9840      2.00000
     80      -7.8802      2.00000
     81      -7.8583      2.00000
     82      -7.8555      2.00000
     83      -7.2221      2.00000
     84      -7.1863      2.00000
     85      -7.1279      2.00000
     86      -6.8842      2.00000
     87      -6.7200      2.00000
     88      -6.6165      2.00000
     89      -6.4612      2.00000
     90      -6.2660      2.00000
     91      -6.1040      2.00000
     92      -5.9148      2.00000
     93      -5.9110      2.00000
     94      -5.8978      2.00000
     95      -5.4541      2.00000
     96      -5.4225      2.00000
     97      -5.1216      2.00000
     98      -5.0146      2.00000
     99      -4.9797      2.00000
    100      -4.9583      2.00000
    101      -3.7303      2.00000
    102      -3.4569      2.00000
    103      -3.2786      2.00000
    104      -2.3882      0.00000
    105      -2.2249      0.00000
    106      -0.9301      0.00000
    107      -0.8834      0.00000
    108      -0.8653      0.00000
    109      -0.5384      0.00000
    110      -0.2598      0.00000
    111      -0.2156      0.00000
    112       0.2496      0.00000
    113       0.2580      0.00000
    114       0.2618      0.00000
    115       0.6017      0.00000
    116       0.7941      0.00000
    117       0.9468      0.00000
    118       0.9723      0.00000
    119       1.0631      0.00000
    120       1.7370      0.00000
    121       1.7421      0.00000
    122       1.7648      0.00000
    123       1.8291      0.00000
    124       2.1152      0.00000
    125       2.1210      0.00000
    126       2.1317      0.00000
    127       2.2459      0.00000
    128       2.2477      0.00000
    129       2.3611      0.00000
    130       3.0001      0.00000
    131       3.0095      0.00000
    132       3.0359      0.00000


--------------------------------------------------------------------------------------------------------


 soft charge-density along one line, spin component           1
         0         1         2         3         4         5         6         7         8         9
 total charge-density along one line
 
 pseudopotential strength for first ion, spin component:           1
 10.222  13.594   0.000  -0.000   0.000  -0.000   0.000  -0.000
 13.594  18.076   0.000  -0.000   0.000  -0.000   0.000  -0.000
  0.000   0.000  -4.352  -0.000  -0.000   8.513   0.000   0.000
 -0.000  -0.000  -0.000  -4.344  -0.000   0.000   8.502   0.000
  0.000   0.000  -0.000  -0.000  -4.352   0.000   0.000   8.513
 -0.000  -0.000   8.513   0.000   0.000 -18.787  -0.000  -0.000
  0.000   0.000   0.000   8.502   0.000  -0.000 -18.776  -0.000
 -0.000  -0.000   0.000   0.000   8.513  -0.000  -0.000 -18.787
 total augmentation occupancy for first ion, spin component:           1
  8.358  -3.741   0.001   0.000   0.003   0.000   0.000   0.001
 -3.741   1.729  -0.002  -0.000  -0.003  -0.000   0.000  -0.000
  0.001  -0.002   1.840  -0.000  -0.001   0.174   0.000   0.000
  0.000  -0.000  -0.000   1.223  -0.000   0.000   0.078   0.000
  0.003  -0.003  -0.001  -0.000   1.839   0.000   0.000   0.174
  0.000  -0.000   0.174   0.000   0.000   0.018   0.000   0.000
  0.000   0.000   0.000   0.078   0.000   0.000   0.005   0.000
  0.001  -0.000   0.000   0.000   0.174   0.000   0.000   0.018


------------------------ aborting loop because EDIFF is reached ----------------------------------------


    CHARGE:  cpu time    0.4118: real time    0.4119
    FORLOC:  cpu time    0.0306: real time    0.0306
    FORNL :  cpu time    1.9761: real time    1.9770
    STRESS:  cpu time    3.3049: real time    3.3063
    FORCOR:  cpu time    0.1200: real time    0.1205
    FORHAR:  cpu time    0.0483: real time    0.0485
    MIXING:  cpu time    0.0036: real time    0.0036
    OFIELD:  cpu time    0.0001: real time    0.0001

  FORCE on cell =-STRESS in cart. coord.  units (eV):
  Direction    XX          YY          ZZ          XY          YZ          ZX
  --------------------------------------------------------------------------------------
  Alpha Z    82.54348    82.54348    82.54348
  Ewald   41236.44802 41232.41567-47952.50941     1.08854    -0.11233    -0.03047
  Hartree 40516.93655 40516.26142-39998.63031     0.14941    -0.09184    -0.02230
  E(xc)    -777.14969  -777.16208  -804.23562     0.00321    -0.00004     0.00002
  Local  -83990.64966-83986.70527 85337.47370    -1.00300     0.19504     0.05639
  n-local  -203.91676  -203.95457  -194.68941     0.01482    -0.00619     0.00120
  augment   -12.38382   -12.37656   -14.04756    -0.00449     0.00065    -0.00013
  Kinetic  3163.82652  3164.44010  3596.26656    -0.17232     0.03512     0.00316
  Fock        0.00000     0.00000     0.00000     0.00000     0.00000     0.00000
  -------------------------------------------------------------------------------------
  Total      15.65464    15.46219    52.17142     0.07618     0.02041     0.00787
  in kB       9.57157     9.45390    31.89866     0.04658     0.01248     0.00481
  external pressure =       16.97 kB  Pullay stress =        0.00 kB


 VOLUME and BASIS-vectors are now :
 -----------------------------------------------------------------------------
  energy-cutoff  :      400.00
  volume of cell :     2620.42
      direct lattice vectors                 reciprocal lattice vectors
    12.300000191  0.000000000  0.000000000     0.081300812 -0.046939053  0.000000000
     6.150000804 10.652112223  0.000000000     0.000000000  0.093878095  0.000000000
     0.000000000  0.000000000 20.000000000     0.000000000  0.000000000  0.050000000

  length of vectors
    12.300000191 12.300000191 20.000000000     0.093878095  0.093878095  0.050000000


 FORCES acting on ions
    electron-ion (+dipol)            ewald-force                    non-local-force                 convergence-correction
 -----------------------------------------------------------------------------------------------
   -.146E+01 -.863E+00 0.279E+01   0.133E+01 0.784E+00 -.278E+01   0.847E-01 0.496E-01 -.337E-04   0.112E-03 0.101E-02 0.691E-03
   0.155E+01 -.868E+00 0.279E+01   -.141E+01 0.794E+00 -.278E+01   -.801E-01 0.509E-01 -.878E-03   0.260E-02 0.582E-03 0.761E-05
   0.496E+01 0.667E+01 0.381E+01   -.517E+01 -.684E+01 -.377E+01   -.122E+00 0.211E-01 -.702E-01   0.109E-02 0.196E-02 0.119E-03
   -.403E+00 0.122E+02 0.481E+01   0.391E+00 -.124E+02 -.494E+01   -.421E-01 -.616E-01 0.109E+00   -.224E-02 0.199E-02 0.233E-04
   -.367E+01 0.637E+01 0.381E+01   0.372E+01 -.645E+01 -.377E+01   0.104E+00 0.802E-01 -.718E-01   -.133E-02 0.281E-02 0.450E-03
   0.114E-01 0.170E+01 0.279E+01   -.111E-01 -.154E+01 -.278E+01   -.125E-02 -.987E-01 -.253E-03   0.107E-02 -.635E-03 0.391E-03
   0.116E+02 0.664E+01 0.489E+01   -.113E+02 -.647E+01 -.494E+01   0.103E+00 0.543E-01 0.526E-01   0.508E-03 -.111E-02 -.988E-04
   0.205E+02 0.374E+02 0.186E+02   -.210E+02 -.385E+02 -.190E+02   0.597E+00 0.624E+00 0.555E+00   0.494E-03 0.361E-02 0.945E-03
   -.207E+02 0.363E+02 0.186E+02   0.212E+02 -.372E+02 -.190E+02   -.631E+00 0.649E+00 0.544E+00   -.308E-02 0.310E-02 0.210E-03
   -.116E+02 0.673E+01 0.489E+01   0.113E+02 -.655E+01 -.494E+01   -.107E+00 0.617E-01 0.521E-01   -.150E-02 0.725E-03 -.342E-04
   0.739E+01 -.341E-02 0.381E+01   -.747E+01 -.408E-02 -.377E+01   0.786E-02 -.138E+00 -.719E-01   0.224E-02 -.349E-03 0.363E-03
   0.418E+02 0.905E-02 0.186E+02   -.428E+02 -.495E-01 -.190E+02   0.882E+00 0.232E+00 0.546E+00   0.327E-02 0.223E-02 -.333E-03
   0.234E-01 0.851E-01 0.291E+03   -.251E-01 -.906E-01 -.346E+03   0.543E-03 -.457E-02 0.712E+01   -.199E-02 -.678E-03 0.723E-02
   -.418E+02 -.108E-01 0.186E+02   0.428E+02 -.306E-01 -.190E+02   -.885E+00 0.226E+00 0.545E+00   -.364E-02 -.307E-03 -.539E-03
   -.740E+01 0.508E-02 0.381E+01   0.748E+01 -.126E-01 -.377E+01   -.109E-01 -.138E+00 -.713E-01   -.133E-02 0.499E-03 0.527E-03
   0.111E+02 -.642E+01 0.480E+01   -.113E+02 0.653E+01 -.494E+01   0.115E-01 -.562E-02 0.111E+00   0.311E-02 -.206E-02 -.405E-03
   0.210E+02 -.362E+02 0.186E+02   -.214E+02 0.371E+02 -.190E+02   0.248E+00 -.878E+00 0.546E+00   0.833E-03 -.388E-02 0.725E-04
   -.209E+02 -.362E+02 0.186E+02   0.214E+02 0.371E+02 -.190E+02   -.248E+00 -.881E+00 0.545E+00   -.172E-02 0.795E-04 0.104E-03
   -.111E+02 -.639E+01 0.480E+01   0.113E+02 0.650E+01 -.494E+01   -.104E-01 -.673E-02 0.111E+00   -.329E-02 -.440E-03 -.112E-03
   -.175E-01 -.145E+01 0.282E+01   0.154E-01 0.153E+01 -.278E+01   -.218E-02 -.851E-01 -.150E-01   0.478E-03 -.192E-02 0.584E-03
   0.371E+01 -.641E+01 0.381E+01   -.375E+01 0.649E+01 -.377E+01   0.124E+00 0.616E-01 -.714E-01   0.144E-02 -.308E-02 0.487E-03
   0.246E-01 -.134E+02 0.489E+01   -.232E-01 0.131E+02 -.494E+01   0.782E-03 -.123E+00 0.525E-01   0.911E-03 -.254E-02 0.103E-03
   -.364E+01 -.635E+01 0.381E+01   0.368E+01 0.642E+01 -.377E+01   -.127E+00 0.577E-01 -.712E-01   -.121E-02 -.313E-03 0.163E-04
   -.133E+01 0.926E+00 0.282E+01   0.139E+01 -.959E+00 -.278E+01   -.790E-01 0.469E-01 -.149E-01   -.181E-02 0.249E-02 0.456E-03
   0.123E+01 0.742E+00 0.282E+01   -.130E+01 -.780E+00 -.278E+01   0.814E-01 0.369E-01 -.142E-01   0.100E-02 0.736E-03 0.697E-03
   0.224E-01 -.108E-01 0.250E+01   -.257E-01 0.126E-01 -.250E+01   0.830E-03 -.672E-03 -.998E-02   0.169E-02 0.180E-03 0.301E-03
   0.544E+01 0.397E+01 0.341E+01   -.530E+01 -.417E+01 -.338E+01   -.666E-01 0.955E-03 -.257E-01   0.873E-03 0.104E-02 -.125E-03
   0.488E+01 0.151E+02 0.683E+01   -.444E+01 -.147E+02 -.646E+01   0.808E-01 0.402E+00 -.113E+00   -.155E-02 -.265E-02 0.311E-03
   -.590E+01 0.170E+02 0.688E+01   0.566E+01 -.169E+02 -.650E+01   0.341E-01 0.154E+00 -.122E+00   -.913E-03 0.326E-02 0.276E-03
   -.528E+01 0.406E+01 0.341E+01   0.512E+01 -.428E+01 -.338E+01   0.681E-01 0.288E-02 -.237E-01   -.752E-03 0.209E-02 0.464E-03
   0.617E+01 0.255E+01 0.341E+01   -.628E+01 -.229E+01 -.338E+01   -.345E-01 -.641E-01 -.239E-01   0.347E-02 -.344E-03 0.255E-03
   0.282E+02 0.164E+02 0.126E+02   -.284E+02 -.166E+02 -.131E+02   -.165E+00 -.877E-01 0.147E+00   0.120E-02 0.212E-04 0.170E-03
   0.138E+00 0.880E+02 0.587E+02   -.158E+00 -.925E+02 -.663E+02   -.145E-01 -.671E+00 0.329E+01   0.261E-02 0.505E-02 0.136E-02
   -.282E+02 0.164E+02 0.126E+02   0.285E+02 -.165E+02 -.131E+02   0.160E+00 -.916E-01 0.144E+00   -.292E-02 0.125E-02 -.297E-04
   -.617E+01 0.256E+01 0.341E+01   0.628E+01 -.231E+01 -.338E+01   0.324E-01 -.640E-01 -.239E-01   -.192E-02 0.564E-04 0.474E-03
   0.179E+02 -.330E+01 0.688E+01   -.177E+02 0.348E+01 -.650E+01   0.105E+00 -.137E+00 -.123E+00   0.244E-02 -.102E-02 -.222E-03
   0.760E+02 -.438E+02 0.586E+02   -.799E+02 0.461E+02 -.663E+02   -.551E+00 0.321E+00 0.331E+01   0.409E-02 -.610E-03 0.264E-02
   -.760E+02 -.438E+02 0.586E+02   0.798E+02 0.461E+02 -.663E+02   0.549E+00 0.318E+00 0.331E+01   -.308E-02 -.421E-02 0.387E-03
   -.179E+02 -.329E+01 0.688E+01   0.177E+02 0.347E+01 -.650E+01   -.107E+00 -.138E+00 -.122E+00   -.184E-02 -.701E-03 -.569E-04
   -.334E-02 -.595E+00 0.293E+01   0.604E-02 0.832E+00 -.290E+01   -.967E-03 -.155E+00 -.521E-01   0.537E-03 -.210E-02 0.341E-03
   0.118E+02 -.138E+02 0.688E+01   -.119E+02 0.135E+02 -.650E+01   0.173E+00 -.222E-01 -.121E+00   0.350E-02 -.263E-02 0.317E-03
   0.131E-01 -.327E+02 0.126E+02   -.142E-01 0.330E+02 -.131E+02   0.917E-03 0.183E+00 0.146E+00   -.818E-03 -.226E-02 -.144E-03
   -.118E+02 -.138E+02 0.688E+01   0.118E+02 0.135E+02 -.650E+01   -.173E+00 -.256E-01 -.121E+00   -.152E-02 -.562E-03 0.944E-04
   -.385E+01 -.217E+01 0.282E+01   0.379E+01 0.213E+01 -.286E+01   -.195E-01 -.107E-01 0.130E-01   -.281E-02 -.732E-03 0.558E-03
   0.382E+01 -.220E+01 0.282E+01   -.376E+01 0.217E+01 -.286E+01   0.196E-01 -.135E-01 0.129E-01   0.258E-02 -.200E-02 0.270E-03
   0.885E+00 -.663E+01 0.341E+01   -.116E+01 0.660E+01 -.338E+01   0.387E-01 0.609E-01 -.239E-01   0.156E-02 -.327E-02 0.454E-03
   -.821E+00 -.662E+01 0.341E+01   0.109E+01 0.658E+01 -.338E+01   -.394E-01 0.611E-01 -.240E-01   0.490E-03 -.149E-02 0.662E-04
   -.379E+00 0.561E+00 0.294E+01   0.572E+00 -.699E+00 -.290E+01   -.141E+00 0.520E-01 -.526E-01   -.160E-02 0.202E-02 0.112E-03
   -.169E+00 0.453E+01 0.282E+01   0.191E+00 -.444E+01 -.286E+01   0.100E-01 -.627E-02 0.134E-01   -.195E-02 0.370E-02 0.367E-03
   0.514E+00 0.283E+00 0.293E+01   -.721E+00 -.404E+00 -.290E+01   0.135E+00 0.796E-01 -.522E-01   0.124E-02 -.181E-03 0.538E-03
   0.577E-01 0.786E-01 -.722E+03   -.306E-01 -.113E+00 0.846E+03   -.128E-01 0.549E-01 -.638E+02   -.639E-02 -.409E-03 -.166E-01
 -----------------------------------------------------------------------------------------------
   0.254E-01 -.333E-01 0.440E+02   0.213E-13 0.636E-14 -.682E-12   -.193E-01 0.348E-01 -.440E+02   -.579E-02 -.202E-02 0.450E-02
 
 
 POSITION                                       TOTAL-FORCE (eV/Angst)
 -----------------------------------------------------------------------------------
      0.00000      0.00000      8.35995        -0.047582     -0.028291      0.009485
      2.46000      0.00000      8.35995         0.054810     -0.022785      0.009050
      4.92000      0.00000      8.35995        -0.334343     -0.147455     -0.025372
      7.38000      0.00000      8.35995        -0.056037     -0.295647     -0.027401
      9.84000      0.00000      8.35995         0.154366      0.010426     -0.026449
      1.23000      2.13042      8.35995         0.000103      0.054709      0.009396
      3.69000      2.13042      8.35995         0.420447      0.231145      0.000177
      6.15000      2.13042      8.35995         0.047967     -0.420906      0.158813
      8.61000      2.13042      8.35995        -0.089756     -0.208093      0.165749
     11.07000      2.13042      8.35995        -0.428860      0.246817     -0.000159
      2.46000      4.26084      8.35995        -0.071776     -0.146079     -0.026251
      4.92000      4.26084      8.35995        -0.138933      0.193860      0.165886
      7.38000      4.26084      8.35995        -0.003129     -0.010812    -48.157056
      9.84000      4.26084      8.35995         0.131530      0.184192      0.165190
     12.30000      4.26084      8.35995         0.066593     -0.145238     -0.026180
      3.69000      6.39127      8.35995        -0.180750      0.105779     -0.027079
      6.15000      6.39127      8.35995        -0.224019      0.023744      0.165119
      8.61000      6.39127      8.35995         0.224251      0.020621      0.165345
     11.07000      6.39127      8.35995         0.180535      0.106395     -0.026973
     13.53000      6.39127      8.35995        -0.003805     -0.010603      0.017841
      4.92000      8.52169      8.35995         0.092101      0.131923     -0.025858
      7.38000      8.52169      8.35995         0.003029     -0.491802      0.000037
      9.84000      8.52169      8.35995        -0.086127      0.127875     -0.025929
     12.30000      8.52169      8.35995        -0.021062      0.016612      0.017741
     14.76000      8.52169      8.35995         0.010515      0.000442      0.018067
      1.23000      0.71014      8.36012        -0.000811      0.001388     -0.006217
      3.69000      0.71014      8.36012         0.070233     -0.191804      0.010342
      6.14500      0.70148      8.36012         0.518206      0.785872      0.259718
      8.61000      0.71014      8.36012        -0.214227      0.271805      0.256299
     11.07000      0.71014      8.36012        -0.097852     -0.215584      0.010169
      2.46000      2.84056      8.36012        -0.140946      0.193791      0.010294
      4.92000      2.84056      8.36012        -0.407586     -0.265621     -0.356831
      7.38000      2.84056      8.36012        -0.031120     -5.121954     -4.357039
      9.84000      2.84056      8.36012         0.441120     -0.254825     -0.354105
     12.30000      2.84056      8.36012         0.139676      0.192778      0.009997
      3.69000      4.97099      8.36012         0.322276      0.040777      0.257623
      6.15000      4.97099      8.36012        -4.393082      2.534516     -4.348209
      8.61000      4.97099      8.36012         4.391543      2.538011     -4.344272
     11.07000      4.97099      8.36012        -0.314845      0.041498      0.256944
     13.53000      4.97099      8.36012         0.002266      0.080394     -0.022190
      4.92000      7.10141      8.36012         0.119000     -0.294590      0.257239
      7.38000      7.10141      8.36012        -0.001033      0.507600     -0.355849
      9.84000      7.10141      8.36012        -0.119995     -0.293944      0.256735
     12.30000      7.10141      8.36012        -0.081196     -0.055319     -0.026385
     14.76000      7.10141      8.36012         0.085563     -0.046933     -0.026367
      6.15000      9.23183      8.36012        -0.237491      0.024997      0.010065
      8.61000      9.23183      8.36012         0.233640      0.020375      0.010219
     11.07000      9.23183      8.36012         0.050550     -0.083311     -0.022008
     13.53000      9.23183      8.36012         0.029673      0.084997     -0.026979
     15.99000      9.23183      8.36012        -0.071500     -0.042184     -0.022205
      7.38000      4.26084      9.36012         0.007873      0.020445     59.989820
 -----------------------------------------------------------------------------------
    total drift:                                0.000247     -0.000501     -0.000663


--------------------------------------------------------------------------------------------------------



  FREE ENERGIE OF THE ION-ELECTRON SYSTEM (eV)
  ---------------------------------------------------
  free  energy   TOTEN  =      -454.33428202 eV

  energy  without entropy=     -454.33416642  energy(sigma->0) =     -454.33422422
 


--------------------------------------------------------------------------------------------------------


    POTLOK:  cpu time    0.1780: real time    0.1780


--------------------------------------------------------------------------------------------------------


 stress matrix after NEB project (eV)
     15.65464      0.07618      0.00787
      0.07618     15.46219      0.02041
      0.00787      0.02041     52.17142
  FORCES: max atom, RMS    59.989824   10.898307
  FORCE total and by dimension   77.829480   59.989820
  Stress total and by dimension   56.621701   52.171421
     LOOP+:  cpu time   42.3989: real time   42.4463
    4ORBIT:  cpu time    0.0000: real time    0.0000

 total amount of memory used by VASP MPI-rank0    90113. kBytes
=======================================================================

   base      :      30000. kBytes
   nonl-proj :       8674. kBytes
   fftplans  :      26248. kBytes
   grid      :      14579. kBytes
   one-center:         21. kBytes
   wavefun   :      10591. kBytes
 
  
  
 General timing and accounting informations for this job:
 ========================================================
  
                  Total CPU time used (sec):       49.975
                            User time (sec):       46.552
                          System time (sec):        3.424
                         Elapsed time (sec):       50.106
  
                   Maximum memory used (kb):      371340.
                   Average memory used (kb):           0.
  
                          Minor page faults:       105234
                          Major page faults:            0
                 Voluntary context switches:         1398
