  51  51   0   0
  0.5138078E+02  0.1230000E-08  0.1230000E-08  0.2000000E-08  0.5000000E-15
  1.000000000000000E-004
  CAR 
                                         
      5.37092521    -33.50745483  301     -3.01720957      1.00000000
    -33.507  0.0000E+00  0.0000E+00
    -33.378  0.0000E+00  0.0000E+00
    -33.248  0.0000E+00  0.0000E+00
    -33.119  0.0000E+00  0.0000E+00
    -32.989  0.0000E+00  0.0000E+00
    -32.859  0.0000E+00  0.0000E+00
    -32.730  0.0000E+00  0.0000E+00
    -32.600  0.0000E+00  0.0000E+00
    -32.471  0.0000E+00  0.0000E+00
    -32.341  0.0000E+00  0.0000E+00
    -32.212  0.0000E+00  0.0000E+00
    -32.082  0.0000E+00  0.0000E+00
    -31.952  0.1528E-07  0.1981E-08
    -31.823  0.1512E+00  0.1960E-01
    -31.693  0.1387E+02  0.1817E+01
    -31.564  0.1412E+01  0.2000E+01
    -31.434  0.4491E-05  0.2000E+01
    -31.304  0.0000E+00  0.2000E+01
    -31.175  0.0000E+00  0.2000E+01
    -31.045  0.0000E+00  0.2000E+01
    -30.916  0.0000E+00  0.2000E+01
    -30.786  0.0000E+00  0.2000E+01
    -30.656  0.0000E+00  0.2000E+01
    -30.527  0.0000E+00  0.2000E+01
    -30.397  0.0000E+00  0.2000E+01
    -30.268  0.0000E+00  0.2000E+01
    -30.138  0.0000E+00  0.2000E+01
    -30.008  0.0000E+00  0.2000E+01
    -29.879  0.0000E+00  0.2000E+01
    -29.749  0.0000E+00  0.2000E+01
    -29.620  0.0000E+00  0.2000E+01
    -29.490  0.0000E+00  0.2000E+01
    -29.360  0.0000E+00  0.2000E+01
    -29.231  0.0000E+00  0.2000E+01
    -29.101  0.0000E+00  0.2000E+01
    -28.972  0.0000E+00  0.2000E+01
    -28.842  0.0000E+00  0.2000E+01
    -28.712  0.0000E+00  0.2000E+01
    -28.583  0.0000E+00  0.2000E+01
    -28.453  0.0000E+00  0.2000E+01
    -28.324  0.0000E+00  0.2000E+01
    -28.194  0.0000E+00  0.2000E+01
    -28.064  0.0000E+00  0.2000E+01
    -27.935  0.0000E+00  0.2000E+01
    -27.805  0.0000E+00  0.2000E+01
    -27.676  0.0000E+00  0.2000E+01
    -27.546  0.0000E+00  0.2000E+01
    -27.417  0.0000E+00  0.2000E+01
    -27.287  0.0000E+00  0.2000E+01
    -27.157  0.0000E+00  0.2000E+01
    -27.028  0.0000E+00  0.2000E+01
    -26.898  0.0000E+00  0.2000E+01
    -26.769  0.0000E+00  0.2000E+01
    -26.639  0.0000E+00  0.2000E+01
    -26.509  0.0000E+00  0.2000E+01
    -26.380  0.0000E+00  0.2000E+01
    -26.250  0.0000E+00  0.2000E+01
    -26.121  0.0000E+00  0.2000E+01
    -25.991  0.0000E+00  0.2000E+01
    -25.861  0.0000E+00  0.2000E+01
    -25.732  0.0000E+00  0.2000E+01
    -25.602  0.0000E+00  0.2000E+01
    -25.473  0.0000E+00  0.2000E+01
    -25.343  0.0000E+00  0.2000E+01
    -25.213  0.0000E+00  0.2000E+01
    -25.084  0.0000E+00  0.2000E+01
    -24.954  0.0000E+00  0.2000E+01
    -24.825  0.0000E+00  0.2000E+01
    -24.695  0.0000E+00  0.2000E+01
    -24.565  0.0000E+00  0.2000E+01
    -24.436  0.0000E+00  0.2000E+01
    -24.306  0.0000E+00  0.2000E+01
    -24.177  0.0000E+00  0.2000E+01
    -24.047  0.0000E+00  0.2000E+01
    -23.917  0.0000E+00  0.2000E+01
    -23.788  0.0000E+00  0.2000E+01
    -23.658  0.0000E+00  0.2000E+01
    -23.529  0.0000E+00  0.2000E+01
    -23.399  0.0000E+00  0.2000E+01
    -23.269  0.0000E+00  0.2000E+01
    -23.140  0.0000E+00  0.2000E+01
    -23.010  0.0000E+00  0.2000E+01
    -22.881  0.0000E+00  0.2000E+01
    -22.751  0.0000E+00  0.2000E+01
    -22.622  0.0000E+00  0.2000E+01
    -22.492  0.3582E-09  0.2000E+01
    -22.362  0.8433E-02  0.2001E+01
    -22.233  0.2578E+01  0.2335E+01
    -22.103  0.1024E+02  0.3663E+01
    -21.974  0.5468E+01  0.4371E+01
    -21.844  0.8811E+01  0.5513E+01
    -21.714  0.6132E+01  0.6308E+01
    -21.585  0.9507E+01  0.7540E+01
    -21.455  0.8538E+01  0.8646E+01
    -21.326  0.1031E+02  0.9982E+01
    -21.196  0.1330E+01  0.1015E+02
    -21.066  0.7534E+01  0.1113E+02
    -20.937  0.9893E+01  0.1241E+02
    -20.807  0.1383E+02  0.1420E+02
    -20.678  0.9607E+01  0.1545E+02
    -20.548  0.8167E+00  0.1556E+02
    -20.418  0.6894E+01  0.1645E+02
    -20.289  0.9985E+01  0.1774E+02
    -20.159  0.1045E+02  0.1910E+02
    -20.030  0.1039E+02  0.2044E+02
    -19.900  0.8817E+00  0.2056E+02
    -19.770  0.9767E+01  0.2182E+02
    -19.641  0.1293E+02  0.2350E+02
    -19.511  0.7947E+01  0.2453E+02
    -19.382  0.1662E+01  0.2475E+02
    -19.252  0.1367E+02  0.2652E+02
    -19.122  0.8409E+01  0.2761E+02
    -18.993  0.9646E+01  0.2886E+02
    -18.863  0.3696E+01  0.2934E+02
    -18.734  0.3587E+01  0.2980E+02
    -18.604  0.1148E+02  0.3129E+02
    -18.474  0.1050E+02  0.3265E+02
    -18.345  0.1293E+02  0.3432E+02
    -18.215  0.4393E+01  0.3489E+02
    -18.086  0.1131E+02  0.3636E+02
    -17.956  0.1004E+02  0.3766E+02
    -17.827  0.5057E+01  0.3832E+02
    -17.697  0.2723E+01  0.3867E+02
    -17.567  0.1078E+02  0.4007E+02
    -17.438  0.1275E+02  0.4172E+02
    -17.308  0.6993E+01  0.4262E+02
    -17.179  0.1839E+02  0.4501E+02
    -17.049  0.6606E+01  0.4586E+02
    -16.919  0.3036E+01  0.4626E+02
    -16.790  0.9598E+01  0.4750E+02
    -16.660  0.5361E+01  0.4820E+02
    -16.531  0.7733E+01  0.4920E+02
    -16.401  0.8895E+01  0.5035E+02
    -16.271  0.2960E+01  0.5073E+02
    -16.142  0.9783E+01  0.5200E+02
    -16.012  0.6002E+01  0.5278E+02
    -15.883  0.1281E+02  0.5444E+02
    -15.753  0.1180E+02  0.5597E+02
    -15.623  0.2164E+01  0.5625E+02
    -15.494  0.4197E+01  0.5679E+02
    -15.364  0.2770E+01  0.5715E+02
    -15.235  0.1013E+02  0.5847E+02
    -15.105  0.2189E+02  0.6130E+02
    -14.975  0.5214E+01  0.6198E+02
    -14.846  0.1115E+02  0.6342E+02
    -14.716  0.1114E+02  0.6487E+02
    -14.587  0.6555E+01  0.6572E+02
    -14.457  0.1295E+02  0.6739E+02
    -14.327  0.8106E+01  0.6844E+02
    -14.198  0.4031E+00  0.6850E+02
    -14.068  0.4684E+01  0.6910E+02
    -13.939  0.6972E+01  0.7001E+02
    -13.809  0.1477E+02  0.7192E+02
    -13.679  0.2253E+02  0.7484E+02
    -13.550  0.2298E+01  0.7514E+02
    -13.420  0.3165E+01  0.7555E+02
    -13.291  0.9790E-01  0.7556E+02
    -13.161  0.8811E+01  0.7670E+02
    -13.032  0.1363E+02  0.7847E+02
    -12.902  0.1881E+02  0.8091E+02
    -12.772  0.6726E+01  0.8178E+02
    -12.643  0.5797E+00  0.8185E+02
    -12.513  0.1873E+02  0.8428E+02
    -12.384  0.1058E+02  0.8565E+02
    -12.254  0.6124E+01  0.8644E+02
    -12.124  0.1971E+01  0.8670E+02
    -11.995  0.1260E+02  0.8833E+02
    -11.865  0.3008E+01  0.8872E+02
    -11.736  0.1057E+02  0.9009E+02
    -11.606  0.2085E+02  0.9279E+02
    -11.476  0.1270E+02  0.9444E+02
    -11.347  0.9363E+01  0.9565E+02
    -11.217  0.9432E+01  0.9688E+02
    -11.088  0.8669E+01  0.9800E+02
    -10.958  0.3560E+01  0.9846E+02
    -10.828  0.2138E+02  0.1012E+03
    -10.699  0.7635E+01  0.1022E+03
    -10.569  0.8862E+01  0.1034E+03
    -10.440  0.1573E+02  0.1054E+03
    -10.310  0.6291E+01  0.1062E+03
    -10.180  0.3215E+02  0.1104E+03
    -10.051  0.2253E+02  0.1133E+03
     -9.921  0.1180E+02  0.1148E+03
     -9.792  0.2093E+02  0.1176E+03
     -9.662  0.1598E+02  0.1196E+03
     -9.532  0.3189E+02  0.1238E+03
     -9.403  0.1592E+02  0.1258E+03
     -9.273  0.3008E+02  0.1297E+03
     -9.144  0.2221E+02  0.1326E+03
     -9.014  0.2891E+02  0.1363E+03
     -8.884  0.2174E+02  0.1392E+03
     -8.755  0.1299E+02  0.1408E+03
     -8.625  0.2740E+02  0.1444E+03
     -8.496  0.1511E+02  0.1464E+03
     -8.366  0.1674E+02  0.1485E+03
     -8.237  0.1478E+02  0.1504E+03
     -8.107  0.1806E+02  0.1528E+03
     -7.977  0.2762E+02  0.1564E+03
     -7.848  0.1608E+02  0.1584E+03
     -7.718  0.1540E+02  0.1604E+03
     -7.589  0.8395E+01  0.1615E+03
     -7.459  0.1988E+01  0.1618E+03
     -7.329  0.1782E+02  0.1641E+03
     -7.200  0.3220E+02  0.1683E+03
     -7.070  0.1661E+02  0.1704E+03
     -6.941  0.3589E+01  0.1709E+03
     -6.811  0.2024E+02  0.1735E+03
     -6.681  0.1175E+02  0.1750E+03
     -6.552  0.1661E+02  0.1772E+03
     -6.422  0.7718E+01  0.1782E+03
     -6.293  0.1161E+02  0.1797E+03
     -6.163  0.1533E+02  0.1817E+03
     -6.033  0.1485E+02  0.1836E+03
     -5.904  0.1666E+02  0.1858E+03
     -5.774  0.1039E+02  0.1871E+03
     -5.645  0.1327E+02  0.1888E+03
     -5.515  0.5805E+01  0.1896E+03
     -5.385  0.6549E+01  0.1904E+03
     -5.256  0.1022E+02  0.1917E+03
     -5.126  0.7274E+01  0.1927E+03
     -4.997  0.1483E+02  0.1946E+03
     -4.867  0.2380E+02  0.1977E+03
     -4.737  0.3256E+01  0.1981E+03
     -4.608  0.8044E+00  0.1982E+03
     -4.478  0.1953E-04  0.1982E+03
     -4.349  0.1891E+00  0.1982E+03
     -4.219  0.1482E+02  0.2002E+03
     -4.089  0.1059E+02  0.2015E+03
     -3.960  0.1299E+00  0.2016E+03
     -3.830  0.9665E-02  0.2016E+03
     -3.701  0.2786E+01  0.2019E+03
     -3.571  0.6362E+00  0.2020E+03
     -3.442  0.2355E+01  0.2023E+03
     -3.312  0.9496E+01  0.2035E+03
     -3.182  0.9117E+01  0.2047E+03
     -3.053  0.9807E+01  0.2060E+03
     -2.923  0.8174E+00  0.2061E+03
     -2.794  0.7321E+01  0.2070E+03
     -2.664  0.3953E+01  0.2076E+03
     -2.534  0.4404E-03  0.2076E+03
     -2.405  0.1065E+01  0.2077E+03
     -2.275  0.2618E+01  0.2080E+03
     -2.146  0.3131E+01  0.2084E+03
     -2.016  0.4486E-01  0.2084E+03
     -1.886  0.6649E-08  0.2084E+03
     -1.757  0.1462E-04  0.2084E+03
     -1.627  0.1592E+01  0.2087E+03
     -1.498  0.9535E+01  0.2099E+03
     -1.368  0.1397E+02  0.2117E+03
     -1.238  0.6201E+00  0.2118E+03
     -1.109  0.1506E-02  0.2118E+03
     -0.979  0.2441E+01  0.2121E+03
     -0.850  0.1560E+02  0.2141E+03
     -0.720  0.2050E+02  0.2168E+03
     -0.590  0.1657E+02  0.2189E+03
     -0.461  0.4834E+01  0.2195E+03
     -0.331  0.1642E+00  0.2196E+03
     -0.202  0.5472E+01  0.2203E+03
     -0.072  0.1133E+02  0.2217E+03
      0.058  0.1017E+02  0.2231E+03
      0.187  0.6415E+00  0.2231E+03
      0.317  0.1724E+02  0.2254E+03
      0.446  0.7025E+01  0.2263E+03
      0.576  0.3139E+01  0.2267E+03
      0.706  0.1106E+02  0.2281E+03
      0.835  0.1711E+02  0.2303E+03
      0.965  0.6038E+01  0.2311E+03
      1.094  0.1034E+02  0.2325E+03
      1.224  0.1613E+02  0.2346E+03
      1.353  0.7300E+01  0.2355E+03
      1.483  0.1470E+02  0.2374E+03
      1.613  0.2441E+02  0.2406E+03
      1.742  0.1539E+02  0.2426E+03
      1.872  0.2756E+02  0.2461E+03
      2.001  0.1257E+02  0.2478E+03
      2.131  0.1809E+02  0.2501E+03
      2.261  0.2577E+02  0.2535E+03
      2.390  0.3429E+02  0.2579E+03
      2.520  0.1587E+02  0.2600E+03
      2.649  0.2581E+01  0.2603E+03
      2.779  0.6031E+01  0.2611E+03
      2.909  0.5457E+01  0.2618E+03
      3.038  0.7338E+01  0.2627E+03
      3.168  0.2951E+01  0.2631E+03
      3.297  0.2943E+01  0.2635E+03
      3.427  0.4690E+00  0.2636E+03
      3.557  0.3131E+00  0.2636E+03
      3.686  0.3083E+01  0.2640E+03
      3.816  0.3373E-01  0.2640E+03
      3.945  0.3424E-08  0.2640E+03
      4.075  0.0000E+00  0.2640E+03
      4.205  0.0000E+00  0.2640E+03
      4.334  0.0000E+00  0.2640E+03
      4.464  0.0000E+00  0.2640E+03
      4.593  0.0000E+00  0.2640E+03
      4.723  0.0000E+00  0.2640E+03
      4.853  0.0000E+00  0.2640E+03
      4.982  0.0000E+00  0.2640E+03
      5.112  0.0000E+00  0.2640E+03
      5.241  0.0000E+00  0.2640E+03
      5.371  0.0000E+00  0.2640E+03
