 running on   48 total cores
 distrk:  each k-point on   48 cores,    1 groups
 distr:  one band on    8 cores,    6 groups
 using from now: INCAR     
 vasp.5.4.4.18Apr17-6-g9f103f2a35 (build Aug 13 2022 23:40:43) complex          
  
 POSCAR found type information on POSCAR  C  O 
 POSCAR found :  2 types and      51 ions
 scaLAPACK will be used

 ----------------------------------------------------------------------------- 
|                                                                             |
|  ADVICE TO THIS USER RUNNING 'VASP/VAMP'   (HEAR YOUR MASTER'S VOICE ...):  |
|                                                                             |
|      You have a (more or less) 'large supercell' and for larger cells       |
|      it might be more efficient to use real space projection opertators     |
|      So try LREAL= Auto  in the INCAR   file.                               |
|      Mind:          For very  accurate calculation you might also keep the  |
|      reciprocal projection scheme          (i.e. LREAL=.FALSE.)             |
|                                                                             |
 ----------------------------------------------------------------------------- 

 LDA part: xc-table for Pade appr. of Perdew
 POSCAR found type information on POSCAR  C  O 
 POSCAR found :  2 types and      51 ions
 found WAVECAR, reading the header
  number of k-points has changed, file:     3 present:     4
  trying to continue reading WAVECAR, but it might fail
 POSCAR, INCAR and KPOINTS ok, starting setup
 FFT: planning ...
 reading WAVECAR
 the WAVECAR file was read successfully
 charge-density read from file: 1.00000000000000                        
 entering main loop
       N       E                     dE             d eps       ncg     rms          rms(c)
DAV:   1    -0.454133346676E+03   -0.45413E+03   -0.56919E+01  1080   0.800E+00    0.123E-01
RMM:   2    -0.454327442717E+03   -0.19410E+00   -0.19431E+00  1124   0.193E+00    0.627E-02
RMM:   3    -0.454338840163E+03   -0.11397E-01   -0.12726E-01  1248   0.387E-01    0.439E-02
RMM:   4    -0.454339544365E+03   -0.70420E-03   -0.73838E-03   992   0.104E-01    0.338E-02
RMM:   5    -0.454339597353E+03   -0.52988E-04   -0.59235E-04  1123   0.347E-02    0.647E-03
RMM:   6    -0.454339602321E+03   -0.49684E-05   -0.42921E-05   821   0.100E-02
   1 F= -.45433960E+03 E0= -.45433955E+03  d E =-.114298E-03
